Process 0 of 1 is on gollum406.lsa.umich.edu - thread support 0
initial socket setup ...start
initial socket setup ...done 
now start server 0 ... 
 Q-Chem 4.3.0 for Intel X86 EM64T Linux

 Parts of Q-Chem use Armadillo 5.200.1 (Boston Tea Smuggler).
 http://arma.sourceforge.net/

 Q-Chem begins on Thu Nov 17 14:35:16 2016  

Host: gollum406.lsa.umich.edu
0

     Scratch files written to /tmp/77279461.satyr/qchem20455//
 Parallel job on  1  processors

Checking the input file for inconsistencies... 	...done.

--------------------------------------------------------------
User input:
--------------------------------------------------------------
 $rem
 JOBTYPE OPT
 EXCHANGE B3LYP
! CORRELATION PBE
! UNRESTRICTED TRUE
 SCF_ALGORITHM rca_diis
 SCF_MAX_CYCLES 150
! BASIS LANL2DZ
! ECP LANL2DZ
 BASIS 6-31G*
 WAVEFUNCTION_ANALYSIS FALSE
 GEOM_OPT_MAX_CYCLES 300

scf_convergence 6

 SYM_IGNORE TRUE
 SYMMETRY   FALSE

molden_format true
 $end


$molecule
0 1
  C -1.034874 -1.581447 0.275724
  C -1.722625 -0.697987 -0.458686
  C -1.917576 0.724385 -0.142888
  C -1.067539 1.503611 0.537185
  C 2.760058 -0.395559 0.366389
  C 2.552605 0.450905 -0.638985
  H -2.214116 -1.049991 -1.365715
  H -0.570962 -1.303439 1.218013
  H -0.927281 -2.614892 -0.038199
  H 3.658594 -0.356120 0.976384
  H 2.033748 -1.163930 0.616647
  H 1.649933 0.405926 -1.241708
  H 3.273425 1.221827 -0.898427
  H -1.301637 2.543529 0.742722
  H -0.107620 1.138436 0.891058
  H -2.837127 1.167576 -0.525087
$end
--------------------------------------------------------------
 ----------------------------------------------------------------
             Standard Nuclear Orientation (Angstroms)
    I     Atom           X                Y                Z
 ----------------------------------------------------------------
    1      C      -1.0348740000    -1.5814470000     0.2757240000
    2      C      -1.7226250000    -0.6979870000    -0.4586860000
    3      C      -1.9175760000     0.7243850000    -0.1428880000
    4      C      -1.0675390000     1.5036110000     0.5371850000
    5      C       2.7600580000    -0.3955590000     0.3663890000
    6      C       2.5526050000     0.4509050000    -0.6389850000
    7      H      -2.2141160000    -1.0499910000    -1.3657150000
    8      H      -0.5709620000    -1.3034390000     1.2180130000
    9      H      -0.9272810000    -2.6148920000    -0.0381990000
   10      H       3.6585940000    -0.3561200000     0.9763840000
   11      H       2.0337480000    -1.1639300000     0.6166470000
   12      H       1.6499330000     0.4059260000    -1.2417080000
   13      H       3.2734250000     1.2218270000    -0.8984270000
   14      H      -1.3016370000     2.5435290000     0.7427220000
   15      H      -0.1076200000     1.1384360000     0.8910580000
   16      H      -2.8371270000     1.1675760000    -0.5250870000
 ----------------------------------------------------------------
 Nuclear Repulsion Energy =   196.5004358661 hartrees
 There are       23 alpha and       23 beta electrons
 Requested basis set is 6-31G(d)
 There are 44 shells and 110 basis functions

 Total QAlloc Memory Limit   2000 MB
 Mega-Array Size        61 MB
 MEM_STATIC part        62 MB
 in ParallelAOLoop for JobNumber:  2 JobType:  2 
 A cutoff of  1.0D-10 yielded    852 shell pairs
 There are      5462 function pairs
 in ParallelAOLoop for JobNumber: 11 JobType: 11 
 DoParallel is ON (aoloop_n) 
 
 -------------------------------------------------------
 OpenMP Integral Computing Module                       
 Release: version 1.0, May 2013, Q-Chem Inc. Pittsburgh 
 -------------------------------------------------------
 Integral Job Info:
 Integral job number is                      11
 Integral operator is                         1
 short-range coefficients                     0
 long-range coefficients              100000000
 Omega coefficients                           0
 if combine SR and LR in K                    0
 Integral screening is                        0
 Integral computing path is                   2
 max size of driver memory is            800000
 size of driver memory is                593474
 size of scratch memory is              2260544
 max col of scratch BK array               1296
 max len of scratch array in speh3          155
 max len of scratch index in speh4           18
 max int batch size is                      520
 min int batch size is                       52
 fixed nKL is                                52
 max L of basis functions is                  2
 order of int derivative is                   0
 number of shells is                         44
 number of basis is                         110
 number of cartesian basis is               110
 number of contracted shell pairs           852
 number of primitive shell pairs           3089
 maxK2 (contraction) of shell pair           36
 max number of K2 of shell pair               1
 max number of CS2 of shell pair            124
 max number of PS2 of shell pair            480
 mem total for path MDJ                   17788
 -------------------------------------------------------
 Smallest overlap matrix eigenvalue = 3.38E-03

 Scale SEOQF with 1.000000e-01/1.000000e-01/1.000000e+00

 Standard Electronic Orientation quadrupole field applied
 Nucleus-field energy     =    -0.0000000058 hartrees
 length of FILE_MO_COEFS: 0 
 Guess from superposition of atomic densities
 Warning:  Energy on first SCF cycle will be non-variational
 A restricted hybrid HF-DFT SCF calculation will be
 performed using Relaxed Constraint Minimization + Pulay DIIS
 Exchange:     0.2000 Hartree-Fock + 0.0800 Slater + 0.7200 B88
 Correlation:  0.1900 VWN1RPA + 0.8100 LYP
 Using SG-1 standard quadrature grid
 SCF converges when DIIS error is below 1.0E-06
 in ParallelAOLoop for JobNumber: 22 JobType: 22 
 ---------------------------------------
  Cycle       Energy         DIIS Error
 ---------------------------------------
    1    -235.2961648344      7.08E-02
 in ParallelAOLoop for JobNumber: 22 JobType: 22 
    2    -234.4370180830      8.99E-03
 in ParallelAOLoop for JobNumber: 22 JobType: 22 
    3    -234.5044756337      8.88E-04 Done RCA. Switching to DIIS
 in ParallelAOLoop for JobNumber: 22 JobType: 22 
    4    -234.5749210683      2.51E-04
 in ParallelAOLoop for JobNumber: 22 JobType: 22 
    5    -234.5749446831      2.16E-04
 in ParallelAOLoop for JobNumber: 22 JobType: 22 
    6    -234.5750064029      9.81E-05
 in ParallelAOLoop for JobNumber: 22 JobType: 22 
    7    -234.5750213970      7.94E-06
 in ParallelAOLoop for JobNumber: 22 JobType: 22 
    8    -234.5750214544      4.75E-06
 in ParallelAOLoop for JobNumber: 22 JobType: 22 
    9    -234.5750214880      1.23E-06
 in ParallelAOLoop for JobNumber: 22 JobType: 22 
   10    -234.5750214898      3.32E-07 Convergence criterion met
 ---------------------------------------
 SCF time:  CPU 29.30 s  wall 29.95 s
 SCF   energy in the final basis set = -234.5750214898
 Total energy in the final basis set = -234.5750214898
 No wavefunction analysis requested
 Calculating analytic gradient of the SCF energy
 in ParallelAOLoop for JobNumber: 111 JobType: 11 
 DoParallel is ON (aoloop_n) 
 in ParallelAOLoop for JobNumber: 122 JobType: 22 
 Gradient of SCF Energy
            1           2           3           4           5           6
    1  -0.0002042   0.0003620   0.0003580  -0.0002437   0.0000008   0.0001407
    2   0.0001245  -0.0004876   0.0004310  -0.0000832   0.0003492  -0.0004902
    3  -0.0002320   0.0003705   0.0002798  -0.0001592  -0.0004177   0.0005132
            7           8           9          10          11          12
    1   0.0001474  -0.0000095  -0.0001260  -0.0004323  -0.0000466   0.0004171
    2   0.0000462  -0.0000046   0.0005784   0.0001233   0.0005992  -0.0000690
    3   0.0004702  -0.0005819   0.0000203  -0.0003809  -0.0003475   0.0003669
           13          14          15          16
    1  -0.0002760  -0.0000045  -0.0005748   0.0004915
    2  -0.0004616  -0.0005665  -0.0000043  -0.0000847
    3   0.0002643  -0.0001870  -0.0000787   0.0000996
 Max gradient component =       5.992E-04
 RMS gradient           =       3.325E-04
 Gradient time:  CPU 7.83 s  wall 7.89 s
 Geometry Optimization Parameters
   NAtoms,    NIC,     NZ,  NCons,   NDum,   NFix, NCnnct, MaxDiis
       16      96       0       0       0       0       0       0


** GEOMETRY OPTIMIZATION IN DELOCALIZED INTERNAL COORDINATES **
   Searching for a Minimum

   Optimization Cycle:   1

                       Coordinates (Angstroms)
     ATOM                X               Y               Z
      1  C        -1.0348740000   -1.5814470000    0.2757240000
      2  C        -1.7226250000   -0.6979870000   -0.4586860000
      3  C        -1.9175760000    0.7243850000   -0.1428880000
      4  C        -1.0675390000    1.5036110000    0.5371850000
      5  C         2.7600580000   -0.3955590000    0.3663890000
      6  C         2.5526050000    0.4509050000   -0.6389850000
      7  H        -2.2141160000   -1.0499910000   -1.3657150000
      8  H        -0.5709620000   -1.3034390000    1.2180130000
      9  H        -0.9272810000   -2.6148920000   -0.0381990000
     10  H         3.6585940000   -0.3561200000    0.9763840000
     11  H         2.0337480000   -1.1639300000    0.6166470000
     12  H         1.6499330000    0.4059260000   -1.2417080000
     13  H         3.2734250000    1.2218270000   -0.8984270000
     14  H        -1.3016370000    2.5435290000    0.7427220000
     15  H        -0.1076200000    1.1384360000    0.8910580000
     16  H        -2.8371270000    1.1675760000   -0.5250870000
   Point Group: c1    Number of degrees of freedom:    42


   Energy is   -234.575021490


 Attempting to Generate Delocalized Internal Coordinates

 42 Hessian modes will be used to form the next step
  Hessian Eigenvalues:
     0.002282    0.008572    0.010167    0.013615    0.015411    0.017002
     0.018881    0.021458    0.021614    0.023443    0.024948    0.025709
     0.033918    0.040257    0.058694    0.085324    0.133093    0.157431
     0.159968    0.159982    0.159985    0.159993    0.160000    0.160000
     0.160000    0.160000    0.174551    0.211992    0.337794    0.347526
     0.348088    0.348112    0.348143    0.351809    0.351914    0.352386
     0.353289    0.353476    0.354942    0.563348    0.568824    0.587629

 Minimum Search - Taking Simple RFO Step
 Searching for Lamda that Minimizes Along All modes
 Value Taken    Lamda =  -0.00003630
 Step Taken.  Stepsize is  0.062881

                             Maximum     Tolerance    Cnvgd?
         Gradient           0.001318      0.000300      NO
         Displacement       0.029331      0.001200      NO
         Energy change     *********      0.000001      NO


 New Cartesian Coordinates Obtained by Inverse Iteration

 Displacement from previous Coordinates is:  0.104672
 ----------------------------------------------------------------
             Standard Nuclear Orientation (Angstroms)
    I     Atom           X                Y                Z
 ----------------------------------------------------------------
    1      C      -1.0328529806    -1.5808268934     0.2707311289
    2      C      -1.7170037976    -0.6936336762    -0.4645301241
    3      C      -1.9170269930     0.7269101254    -0.1415706722
    4      C      -1.0684909831     1.5066759043     0.5418124537
    5      C       2.7629768466    -0.3939375456     0.3725381361
    6      C       2.5443119571     0.4409046779    -0.6420117289
    7      H      -2.2011496054    -1.0407147353    -1.3782540666
    8      H      -0.5770448797    -1.3081901017     1.2194973124
    9      H      -0.9206864186    -2.6132501414    -0.0478758712
   10      H       3.6662470789    -0.3442567448     0.9762848066
   11      H       2.0416105114    -1.1631430864     0.6379150441
   12      H       1.6370946799     0.3855546313    -1.2385407157
   13      H       3.2600024684     1.2126560845    -0.9163731168
   14      H      -1.3058480370     2.5456712925     0.7527701852
   15      H      -0.1058092876     1.1441283654     0.8933867611
   16      H      -2.8393245598     1.1682818434    -0.5213525325
 ----------------------------------------------------------------
 Nuclear Repulsion Energy =   196.4394019177 hartrees
 There are       23 alpha and       23 beta electrons
 Applying Cartesian multipole field
    Component          Value
    ---------          -----
     (2,0,0)        1.00000E-11
     (0,2,0)        2.00000E-11
     (0,0,2)       -3.00000E-10
 Nucleus-field energy     =    -0.0000000060 hartrees
 length of FILE_MO_COEFS: 24420 
 Requested basis set is 6-31G(d)
 There are 44 shells and 110 basis functions
 in ParallelAOLoop for JobNumber:  2 JobType:  2 
 A cutoff of  1.0D-10 yielded    852 shell pairs
 There are      5462 function pairs
 in ParallelAOLoop for JobNumber: 11 JobType: 11 
 DoParallel is ON (aoloop_n) 
 Smallest overlap matrix eigenvalue = 3.41E-03
 Guess MOs from SCF MO coefficient file
 Reading MOs from coefficient file
 Reading MOs from coefficient file
 A restricted hybrid HF-DFT SCF calculation will be
 performed using Relaxed Constraint Minimization + Pulay DIIS
 Exchange:     0.2000 Hartree-Fock + 0.0800 Slater + 0.7200 B88
 Correlation:  0.1900 VWN1RPA + 0.8100 LYP
 Using SG-1 standard quadrature grid
 SCF converges when DIIS error is below 1.0E-06
 Geometry optimization detected.  Setting ReadMinima to 0
 Setting SaveMinima to 0
 in ParallelAOLoop for JobNumber: 22 JobType: 22 
 Inaccurate integrated density:
   Number of electrons =    46
   Numerical integral  =    45.992812438269
   Relative error      =    -0.0156251342 %
 Inaccurate integrated density:
   Number of electrons =    46
   Numerical integral  =    45.992812438269
   Relative error      =    -0.0156251342 %
 ---------------------------------------
  Cycle       Energy         DIIS Error
 ---------------------------------------
    1    -234.5704288085      3.63E-04 Done RCA. Switching to DIIS
 in ParallelAOLoop for JobNumber: 22 JobType: 22 
    2    -234.5750427899      3.24E-05
 in ParallelAOLoop for JobNumber: 22 JobType: 22 
    3    -234.5750449066      2.58E-05
 in ParallelAOLoop for JobNumber: 22 JobType: 22 
    4    -234.5750458738      9.55E-06
 in ParallelAOLoop for JobNumber: 22 JobType: 22 
    5    -234.5750459594      6.36E-06
 in ParallelAOLoop for JobNumber: 22 JobType: 22 
    6    -234.5750460237      6.89E-07 Convergence criterion met
 ---------------------------------------
 SCF time:  CPU 17.43 s  wall 18.85 s
 SCF   energy in the final basis set = -234.5750460237
 Total energy in the final basis set = -234.5750460237
 No wavefunction analysis requested
 Calculating analytic gradient of the SCF energy
 in ParallelAOLoop for JobNumber: 111 JobType: 11 
 DoParallel is ON (aoloop_n) 
 in ParallelAOLoop for JobNumber: 122 JobType: 22 
 Gradient of SCF Energy
            1           2           3           4           5           6
    1   0.0001326  -0.0000947  -0.0001078   0.0001160   0.0001862  -0.0000282
    2  -0.0001872   0.0000750  -0.0000823   0.0001697  -0.0003178   0.0001801
    3   0.0000617  -0.0000595  -0.0001266   0.0000958   0.0003576  -0.0002479
            7           8           9          10          11          12
    1  -0.0000756   0.0002632  -0.0000210   0.0000123  -0.0003776  -0.0000304
    2  -0.0000112  -0.0000134  -0.0000038   0.0000298   0.0001398   0.0000153
    3   0.0000278  -0.0000276  -0.0000352   0.0000201  -0.0001055  -0.0000456
           13          14          15          16
    1   0.0000240  -0.0000093  -0.0000300   0.0000404
    2   0.0000047   0.0000056  -0.0000302   0.0000260
    3   0.0000175  -0.0000223   0.0001726  -0.0000830
 Max gradient component =       3.776E-04
 RMS gradient           =       1.305E-04
 Gradient time:  CPU 8.04 s  wall 8.21 s
 Geometry Optimization Parameters
   NAtoms,    NIC,     NZ,  NCons,   NDum,   NFix, NCnnct, MaxDiis
       16      96       0       0       0       0       0       0

 Cartesian Hessian Update
 Hessian Updated using BFGS Update


** GEOMETRY OPTIMIZATION IN DELOCALIZED INTERNAL COORDINATES **
   Searching for a Minimum

   Optimization Cycle:   2

                       Coordinates (Angstroms)
     ATOM                X               Y               Z
      1  C        -1.0328529806   -1.5808268934    0.2707311289
      2  C        -1.7170037976   -0.6936336762   -0.4645301241
      3  C        -1.9170269930    0.7269101254   -0.1415706722
      4  C        -1.0684909831    1.5066759043    0.5418124537
      5  C         2.7629768466   -0.3939375456    0.3725381361
      6  C         2.5443119571    0.4409046779   -0.6420117289
      7  H        -2.2011496054   -1.0407147353   -1.3782540666
      8  H        -0.5770448797   -1.3081901017    1.2194973124
      9  H        -0.9206864186   -2.6132501414   -0.0478758712
     10  H         3.6662470789   -0.3442567448    0.9762848066
     11  H         2.0416105114   -1.1631430864    0.6379150441
     12  H         1.6370946799    0.3855546313   -1.2385407157
     13  H         3.2600024684    1.2126560845   -0.9163731168
     14  H        -1.3058480370    2.5456712925    0.7527701852
     15  H        -0.1058092876    1.1441283654    0.8933867611
     16  H        -2.8393245598    1.1682818434   -0.5213525325
   Point Group: c1    Number of degrees of freedom:    42


   Energy is   -234.575046024

 Hessian Updated using BFGS Update

 40 Hessian modes will be used to form the next step
  Hessian Eigenvalues:
     0.001368    0.007641    0.009926    0.012534    0.015266    0.016558
     0.018867    0.021458    0.021630    0.023498    0.024928    0.025706
     0.033179    0.040384    0.058742    0.084558    0.130220    0.157392
     0.158970    0.159971    0.159984    0.159989    0.159996    0.161521
     0.173934    0.211927    0.337909    0.347501    0.348079    0.348127
     0.349049    0.351853    0.352180    0.352777    0.353377    0.353958
     0.383141    0.563313    0.574444    0.785497

 Minimum Search - Taking Simple RFO Step
 Searching for Lamda that Minimizes Along All modes
 Value Taken    Lamda =  -0.00003036
 Step Taken.  Stepsize is  0.127780

                             Maximum     Tolerance    Cnvgd?
         Gradient           0.000240      0.000300     YES
         Displacement       0.059424      0.001200      NO
         Energy change     -0.000025      0.000001      NO


 New Cartesian Coordinates Obtained by Inverse Iteration

 Displacement from previous Coordinates is:  0.225587
 ----------------------------------------------------------------
             Standard Nuclear Orientation (Angstroms)
    I     Atom           X                Y                Z
 ----------------------------------------------------------------
    1      C      -1.0287747094    -1.5773360628     0.2595019271
    2      C      -1.7045579581    -0.6837915796    -0.4765238669
    3      C      -1.9144767949     0.7319780688    -0.1387550430
    4      C      -1.0699620008     1.5099038564     0.5523442619
    5      C       2.7678647135    -0.3879706210     0.3849588526
    6      C       2.5263219206     0.4180406502    -0.6481487516
    7      H      -2.1728585545    -1.0210466574    -1.4026238306
    8      H      -0.5907552771    -1.3146853564     1.2199354229
    9      H      -0.9067345761    -2.6061192798    -0.0688695956
   10      H       3.6794716938    -0.3145499681     0.9744705745
   11      H       2.0576839745    -1.1567960738     0.6818451801
   12      H       1.6108382372     0.3387544131    -1.2300474636
   13      H       3.2302968960     1.1895326801    -0.9537881416
   14      H      -1.3131368853     2.5456752854     0.7749682055
   15      H      -0.1038852299     1.1501365943     0.8989246111
   16      H      -2.8403294497     1.1711040506    -0.5137653425
 ----------------------------------------------------------------
 Nuclear Repulsion Energy =   196.5267339938 hartrees
 There are       23 alpha and       23 beta electrons
 Applying Cartesian multipole field
    Component          Value
    ---------          -----
     (2,0,0)        1.00000E-11
     (0,2,0)        2.00000E-11
     (0,0,2)       -3.00000E-10
 Nucleus-field energy     =    -0.0000000065 hartrees
 length of FILE_MO_COEFS: 24420 
 Requested basis set is 6-31G(d)
 There are 44 shells and 110 basis functions
 in ParallelAOLoop for JobNumber:  2 JobType:  2 
 A cutoff of  1.0D-10 yielded    854 shell pairs
 There are      5510 function pairs
 in ParallelAOLoop for JobNumber: 11 JobType: 11 
 DoParallel is ON (aoloop_n) 
 Smallest overlap matrix eigenvalue = 3.45E-03
 Guess MOs from SCF MO coefficient file
 Reading MOs from coefficient file
 Reading MOs from coefficient file
 A restricted hybrid HF-DFT SCF calculation will be
 performed using Relaxed Constraint Minimization + Pulay DIIS
 Exchange:     0.2000 Hartree-Fock + 0.0800 Slater + 0.7200 B88
 Correlation:  0.1900 VWN1RPA + 0.8100 LYP
 Using SG-1 standard quadrature grid
 SCF converges when DIIS error is below 1.0E-06
 Geometry optimization detected.  Setting ReadMinima to 0
 Setting SaveMinima to 0
 in ParallelAOLoop for JobNumber: 22 JobType: 22 
 Inaccurate integrated density:
   Number of electrons =    46
   Numerical integral  =    45.995048418947
   Relative error      =    -0.0107643066 %
 Inaccurate integrated density:
   Number of electrons =    46
   Numerical integral  =    45.995048418947
   Relative error      =    -0.0107643066 %
 ---------------------------------------
  Cycle       Energy         DIIS Error
 ---------------------------------------
    1    -234.5718307463      7.80E-04 Done RCA. Switching to DIIS
 in ParallelAOLoop for JobNumber: 22 JobType: 22 
    2    -234.5750581111      5.87E-05
 in ParallelAOLoop for JobNumber: 22 JobType: 22 
    3    -234.5750666092      4.49E-05
 in ParallelAOLoop for JobNumber: 22 JobType: 22 
    4    -234.5750686560      2.95E-05
 in ParallelAOLoop for JobNumber: 22 JobType: 22 
    5    -234.5750699495      8.78E-06
 in ParallelAOLoop for JobNumber: 22 JobType: 22 
    6    -234.5750700703      1.37E-06
 in ParallelAOLoop for JobNumber: 22 JobType: 22 
    7    -234.5750700722      6.34E-07 Convergence criterion met
 ---------------------------------------
 SCF time:  CPU 20.22 s  wall 22.02 s
 SCF   energy in the final basis set = -234.5750700722
 Total energy in the final basis set = -234.5750700722
 No wavefunction analysis requested
 Calculating analytic gradient of the SCF energy
 in ParallelAOLoop for JobNumber: 111 JobType: 11 
 DoParallel is ON (aoloop_n) 
 in ParallelAOLoop for JobNumber: 122 JobType: 22 
 Gradient of SCF Energy
            1           2           3           4           5           6
    1   0.0002155  -0.0002651  -0.0002123   0.0001635   0.0002428  -0.0000599
    2  -0.0001468   0.0003473  -0.0003575   0.0001198  -0.0004847   0.0003135
    3   0.0000855  -0.0001592  -0.0002727   0.0000791   0.0005137  -0.0003831
            7           8           9          10          11          12
    1  -0.0001723   0.0003730   0.0000605   0.0002562  -0.0005500  -0.0003021
    2  -0.0000214  -0.0000573  -0.0003467  -0.0000088  -0.0000857   0.0000527
    3  -0.0002322   0.0003136  -0.0000559   0.0002348   0.0000420  -0.0002490
           13          14          15          16
    1   0.0001605   0.0000083   0.0003082  -0.0002269
    2   0.0002764   0.0003396  -0.0000165   0.0000761
    3  -0.0001568   0.0000910   0.0003145  -0.0001653
 Max gradient component =       5.500E-04
 RMS gradient           =       2.484E-04
 Gradient time:  CPU 8.05 s  wall 8.13 s
 Geometry Optimization Parameters
   NAtoms,    NIC,     NZ,  NCons,   NDum,   NFix, NCnnct, MaxDiis
       16      96       0       0       0       0       0       0

 Cartesian Hessian Update
 Hessian Updated using BFGS Update


** GEOMETRY OPTIMIZATION IN DELOCALIZED INTERNAL COORDINATES **
   Searching for a Minimum

   Optimization Cycle:   3

                       Coordinates (Angstroms)
     ATOM                X               Y               Z
      1  C        -1.0287747094   -1.5773360628    0.2595019271
      2  C        -1.7045579581   -0.6837915796   -0.4765238669
      3  C        -1.9144767949    0.7319780688   -0.1387550430
      4  C        -1.0699620008    1.5099038564    0.5523442619
      5  C         2.7678647135   -0.3879706210    0.3849588526
      6  C         2.5263219206    0.4180406502   -0.6481487516
      7  H        -2.1728585545   -1.0210466574   -1.4026238306
      8  H        -0.5907552771   -1.3146853564    1.2199354229
      9  H        -0.9067345761   -2.6061192798   -0.0688695956
     10  H         3.6794716938   -0.3145499681    0.9744705745
     11  H         2.0576839745   -1.1567960738    0.6818451801
     12  H         1.6108382372    0.3387544131   -1.2300474636
     13  H         3.2302968960    1.1895326801   -0.9537881416
     14  H        -1.3131368853    2.5456752854    0.7749682055
     15  H        -0.1038852299    1.1501365943    0.8989246111
     16  H        -2.8403294497    1.1711040506   -0.5137653425
   Point Group: c1    Number of degrees of freedom:    42


   Energy is   -234.575070072

 Hessian Updated using BFGS Update

 41 Hessian modes will be used to form the next step
  Hessian Eigenvalues:
     0.000549    0.006729    0.009769    0.012323    0.015208    0.016497
     0.018880    0.021459    0.021626    0.023544    0.024920    0.025715
     0.033074    0.040384    0.058391    0.083703    0.128492    0.157344
     0.159132    0.159972    0.159987    0.159989    0.159996    0.160058
     0.164756    0.174689    0.211894    0.337846    0.347576    0.348114
     0.348168    0.349506    0.351861    0.352216    0.352786    0.353386
     0.354946    0.409643    0.563357    0.574951    0.919275

 Minimum Search - Taking Simple RFO Step
 Searching for Lamda that Minimizes Along All modes
 Value Taken    Lamda =  -0.00004874
 Step Taken.  Stepsize is  0.258948

                             Maximum     Tolerance    Cnvgd?
         Gradient           0.000758      0.000300      NO
         Displacement       0.118309      0.001200      NO
         Energy change     -0.000024      0.000001      NO


 New Cartesian Coordinates Obtained by Inverse Iteration

 Displacement from previous Coordinates is:  0.457788
 ----------------------------------------------------------------
             Standard Nuclear Orientation (Angstroms)
    I     Atom           X                Y                Z
 ----------------------------------------------------------------
    1      C      -1.0220046904    -1.5692337660     0.2359127081
    2      C      -1.6808034212    -0.6633539541    -0.5004077153
    3      C      -1.9107998619     0.7419925106    -0.1329236630
    4      C      -1.0741127604     1.5146053154     0.5735195564
    5      C       2.7795502261    -0.3732625936     0.4089253446
    6      C       2.4925450104     0.3701212145    -0.6589215113
    7      H      -2.1169017292    -0.9806546795    -1.4493069761
    8      H      -0.6203977251    -1.3259606484     1.2172307745
    9      H      -0.8794161263    -2.5892561779    -0.1117169421
   10      H       3.7064569471    -0.2525776683     0.9663530985
   11      H       2.0926934118    -1.1363294480     0.7696584137
   12      H       1.5621273788     0.2425267820    -1.2082097711
   13      H       3.1721621269     1.1362644088    -1.0275343561
   14      H      -1.3285084415     2.5424956948     0.8201868367
   15      H      -0.1025683472     1.1584826310     0.9092824692
   16      H      -2.8430159981     1.1769703786    -0.4976212668
 ----------------------------------------------------------------
 Nuclear Repulsion Energy =   196.7551613173 hartrees
 There are       23 alpha and       23 beta electrons
 Applying Cartesian multipole field
    Component          Value
    ---------          -----
     (2,0,0)        1.00000E-11
     (0,2,0)        2.00000E-11
     (0,0,2)       -3.00000E-10
 Nucleus-field energy     =    -0.0000000075 hartrees
 length of FILE_MO_COEFS: 24420 
 Requested basis set is 6-31G(d)
 There are 44 shells and 110 basis functions
 in ParallelAOLoop for JobNumber:  2 JobType:  2 
 A cutoff of  1.0D-10 yielded    854 shell pairs
 There are      5510 function pairs
 in ParallelAOLoop for JobNumber: 11 JobType: 11 
 DoParallel is ON (aoloop_n) 
 Smallest overlap matrix eigenvalue = 3.51E-03
 Guess MOs from SCF MO coefficient file
 Reading MOs from coefficient file
 Reading MOs from coefficient file
 A restricted hybrid HF-DFT SCF calculation will be
 performed using Relaxed Constraint Minimization + Pulay DIIS
 Exchange:     0.2000 Hartree-Fock + 0.0800 Slater + 0.7200 B88
 Correlation:  0.1900 VWN1RPA + 0.8100 LYP
 Using SG-1 standard quadrature grid
 SCF converges when DIIS error is below 1.0E-06
 Geometry optimization detected.  Setting ReadMinima to 0
 Setting SaveMinima to 0
 in ParallelAOLoop for JobNumber: 22 JobType: 22 
 Inaccurate integrated density:
   Number of electrons =    46
   Numerical integral  =    45.990233545308
   Relative error      =    -0.0212314232 %
 Inaccurate integrated density:
   Number of electrons =    46
   Numerical integral  =    45.990233545308
   Relative error      =    -0.0212314232 %
 ---------------------------------------
  Cycle       Energy         DIIS Error
 ---------------------------------------
    1    -234.5687336604      1.60E-03
 in ParallelAOLoop for JobNumber: 22 JobType: 22 
    2    -234.5750374685      1.38E-04 Done RCA. Switching to DIIS
 in ParallelAOLoop for JobNumber: 22 JobType: 22 
    3    -234.5750734502      1.15E-04
 in ParallelAOLoop for JobNumber: 22 JobType: 22 
    4    -234.5750916549      4.96E-05
 in ParallelAOLoop for JobNumber: 22 JobType: 22 
    5    -234.5750945973      2.65E-05
 in ParallelAOLoop for JobNumber: 22 JobType: 22 
    6    -234.5750957138      2.75E-06
 in ParallelAOLoop for JobNumber: 22 JobType: 22 
    7    -234.5750957227      1.57E-06
 in ParallelAOLoop for JobNumber: 22 JobType: 22 
    8    -234.5750957275      3.13E-07 Convergence criterion met
 ---------------------------------------
 SCF time:  CPU 23.25 s  wall 24.25 s
 SCF   energy in the final basis set = -234.5750957275
 Total energy in the final basis set = -234.5750957275
 No wavefunction analysis requested
 Calculating analytic gradient of the SCF energy
 in ParallelAOLoop for JobNumber: 111 JobType: 11 
 DoParallel is ON (aoloop_n) 
 in ParallelAOLoop for JobNumber: 122 JobType: 22 
 Gradient of SCF Energy
            1           2           3           4           5           6
    1   0.0001567  -0.0002524  -0.0002817   0.0001689   0.0002481   0.0000023
    2  -0.0000183   0.0003647  -0.0004560   0.0000750  -0.0004253   0.0002462
    3   0.0000313  -0.0000950  -0.0003303  -0.0000557   0.0003326  -0.0001720
            7           8           9          10          11          12
    1  -0.0001434   0.0002681   0.0001486   0.0003761  -0.0005638  -0.0004605
    2  -0.0000027  -0.0001197  -0.0004833  -0.0000108  -0.0001474   0.0000145
    3  -0.0003659   0.0004313  -0.0000467   0.0003061   0.0002279  -0.0003666
           13          14          15          16
    1   0.0001496   0.0000355   0.0005213  -0.0003733
    2   0.0004244   0.0004777  -0.0000181   0.0000792
    3  -0.0003152   0.0001812   0.0003748  -0.0001378
 Max gradient component =       5.638E-04
 RMS gradient           =       2.853E-04
 Gradient time:  CPU 7.77 s  wall 7.82 s
 Geometry Optimization Parameters
   NAtoms,    NIC,     NZ,  NCons,   NDum,   NFix, NCnnct, MaxDiis
       16      96       0       0       0       0       0       0

 Cartesian Hessian Update
 Hessian Updated using BFGS Update


** GEOMETRY OPTIMIZATION IN DELOCALIZED INTERNAL COORDINATES **
   Searching for a Minimum

   Optimization Cycle:   4

                       Coordinates (Angstroms)
     ATOM                X               Y               Z
      1  C        -1.0220046904   -1.5692337660    0.2359127081
      2  C        -1.6808034212   -0.6633539541   -0.5004077153
      3  C        -1.9107998619    0.7419925106   -0.1329236630
      4  C        -1.0741127604    1.5146053154    0.5735195564
      5  C         2.7795502261   -0.3732625936    0.4089253446
      6  C         2.4925450104    0.3701212145   -0.6589215113
      7  H        -2.1169017292   -0.9806546795   -1.4493069761
      8  H        -0.6203977251   -1.3259606484    1.2172307745
      9  H        -0.8794161263   -2.5892561779   -0.1117169421
     10  H         3.7064569471   -0.2525776683    0.9663530985
     11  H         2.0926934118   -1.1363294480    0.7696584137
     12  H         1.5621273788    0.2425267820   -1.2082097711
     13  H         3.1721621269    1.1362644088   -1.0275343561
     14  H        -1.3285084415    2.5424956948    0.8201868367
     15  H        -0.1025683472    1.1584826310    0.9092824692
     16  H        -2.8430159981    1.1769703786   -0.4976212668
   Point Group: c1    Number of degrees of freedom:    42


   Energy is   -234.575095727

 Hessian Updated using BFGS Update

 42 Hessian modes will be used to form the next step
  Hessian Eigenvalues:
     0.000700    0.006322    0.009662    0.012323    0.015186    0.016559
     0.018981    0.021460    0.021624    0.023527    0.024920    0.025723
     0.033003    0.040423    0.058006    0.083671    0.127515    0.157402
     0.159183    0.159972    0.159987    0.159989    0.159998    0.160011
     0.160233    0.165030    0.174940    0.211891    0.337792    0.347653
     0.348116    0.348170    0.349513    0.351865    0.352226    0.352785
     0.353387    0.354966    0.407792    0.563407    0.575141    0.851027

 Minimum Search - Taking Simple RFO Step
 Searching for Lamda that Minimizes Along All modes
 Value Taken    Lamda =  -0.00001186
 Step Taken.  Stepsize is  0.020570

                             Maximum     Tolerance    Cnvgd?
         Gradient           0.000994      0.000300      NO
         Displacement       0.007282      0.001200      NO
         Energy change     -0.000026      0.000001      NO


 New Cartesian Coordinates Obtained by Inverse Iteration

 Displacement from previous Coordinates is:  0.027271
 ----------------------------------------------------------------
             Standard Nuclear Orientation (Angstroms)
    I     Atom           X                Y                Z
 ----------------------------------------------------------------
    1      C      -1.0260370949    -1.5694273351     0.2363963516
    2      C      -1.6830437524    -0.6634037574    -0.5006635502
    3      C      -1.9122456142     0.7418949517    -0.1330189567
    4      C      -1.0753014212     1.5136485554     0.5730789557
    5      C       2.7836125958    -0.3723204491     0.4085977512
    6      C       2.4958824057     0.3707966696    -0.6586868719
    7      H      -2.1190020608    -0.9808904151    -1.4492367869
    8      H      -0.6245574658    -1.3256970413     1.2172831945
    9      H      -0.8848402397    -2.5894115186    -0.1107057900
   10      H       3.7103418922    -0.2505604584     0.9653423141
   11      H       2.0986640164    -1.1366996361     0.7691043737
   12      H       1.5663344007     0.2424611446    -1.2084717864
   13      H       3.1754123464     1.1370381533    -1.0260493239
   14      H      -1.3298995986     2.5409495636     0.8202826868
   15      H      -0.1040142183     1.1571246493     0.9078199361
   16      H      -2.8443001915     1.1773269236    -0.4966454975
 ----------------------------------------------------------------
 Nuclear Repulsion Energy =   196.7202694493 hartrees
 There are       23 alpha and       23 beta electrons
 Applying Cartesian multipole field
    Component          Value
    ---------          -----
     (2,0,0)        1.00000E-11
     (0,2,0)        2.00000E-11
     (0,0,2)       -3.00000E-10
 Nucleus-field energy     =    -0.0000000075 hartrees
 length of FILE_MO_COEFS: 24420 
 Requested basis set is 6-31G(d)
 There are 44 shells and 110 basis functions
 in ParallelAOLoop for JobNumber:  2 JobType:  2 
 A cutoff of  1.0D-10 yielded    854 shell pairs
 There are      5507 function pairs
 in ParallelAOLoop for JobNumber: 11 JobType: 11 
 DoParallel is ON (aoloop_n) 
 Smallest overlap matrix eigenvalue = 3.51E-03
 Guess MOs from SCF MO coefficient file
 Reading MOs from coefficient file
 Reading MOs from coefficient file
 A restricted hybrid HF-DFT SCF calculation will be
 performed using Relaxed Constraint Minimization + Pulay DIIS
 Exchange:     0.2000 Hartree-Fock + 0.0800 Slater + 0.7200 B88
 Correlation:  0.1900 VWN1RPA + 0.8100 LYP
 Using SG-1 standard quadrature grid
 SCF converges when DIIS error is below 1.0E-06
 Geometry optimization detected.  Setting ReadMinima to 0
 Setting SaveMinima to 0
 in ParallelAOLoop for JobNumber: 22 JobType: 22 
 ---------------------------------------
  Cycle       Energy         DIIS Error
 ---------------------------------------
    1    -234.5767956330      5.51E-05 Done RCA. Switching to DIIS
 in ParallelAOLoop for JobNumber: 22 JobType: 22 
    2    -234.5751051627      7.87E-06
 in ParallelAOLoop for JobNumber: 22 JobType: 22 
    3    -234.5751052001      8.37E-06
 in ParallelAOLoop for JobNumber: 22 JobType: 22 
    4    -234.5751053120      1.93E-06
 in ParallelAOLoop for JobNumber: 22 JobType: 22 
    5    -234.5751053162      1.11E-06
 in ParallelAOLoop for JobNumber: 22 JobType: 22 
    6    -234.5751053180      1.52E-07 Convergence criterion met
 ---------------------------------------
 SCF time:  CPU 16.87 s  wall 16.94 s
 SCF   energy in the final basis set = -234.5751053180
 Total energy in the final basis set = -234.5751053180
 No wavefunction analysis requested
 Calculating analytic gradient of the SCF energy
 in ParallelAOLoop for JobNumber: 111 JobType: 11 
 DoParallel is ON (aoloop_n) 
 in ParallelAOLoop for JobNumber: 122 JobType: 22 
 Gradient of SCF Energy
            1           2           3           4           5           6
    1   0.0000448  -0.0000669  -0.0000883   0.0000489   0.0001779  -0.0000412
    2   0.0000343   0.0001745  -0.0001617  -0.0000819  -0.0001964   0.0001433
    3  -0.0000228  -0.0000415  -0.0001047  -0.0001732   0.0001241  -0.0000214
            7           8           9          10          11          12
    1  -0.0000571   0.0001839   0.0000652   0.0001632  -0.0003622  -0.0002292
    2   0.0000021  -0.0001104  -0.0002255  -0.0000366  -0.0000027   0.0000165
    3  -0.0001857   0.0002095  -0.0000045   0.0001362   0.0001443  -0.0002257
           13          14          15          16
    1   0.0000625   0.0000177   0.0002589  -0.0001781
    2   0.0001775   0.0002106   0.0000281   0.0000283
    3  -0.0001461   0.0000950   0.0002554  -0.0000389
 Max gradient component =       3.622E-04
 RMS gradient           =       1.440E-04
 Gradient time:  CPU 7.56 s  wall 8.62 s
 Geometry Optimization Parameters
   NAtoms,    NIC,     NZ,  NCons,   NDum,   NFix, NCnnct, MaxDiis
       16      96       0       0       0       0       0       0

 Cartesian Hessian Update
 Hessian Updated using BFGS Update


** GEOMETRY OPTIMIZATION IN DELOCALIZED INTERNAL COORDINATES **
   Searching for a Minimum

   Optimization Cycle:   5

                       Coordinates (Angstroms)
     ATOM                X               Y               Z
      1  C        -1.0260370949   -1.5694273351    0.2363963516
      2  C        -1.6830437524   -0.6634037574   -0.5006635502
      3  C        -1.9122456142    0.7418949517   -0.1330189567
      4  C        -1.0753014212    1.5136485554    0.5730789557
      5  C         2.7836125958   -0.3723204491    0.4085977512
      6  C         2.4958824057    0.3707966696   -0.6586868719
      7  H        -2.1190020608   -0.9808904151   -1.4492367869
      8  H        -0.6245574658   -1.3256970413    1.2172831945
      9  H        -0.8848402397   -2.5894115186   -0.1107057900
     10  H         3.7103418922   -0.2505604584    0.9653423141
     11  H         2.0986640164   -1.1366996361    0.7691043737
     12  H         1.5663344007    0.2424611446   -1.2084717864
     13  H         3.1754123464    1.1370381533   -1.0260493239
     14  H        -1.3298995986    2.5409495636    0.8202826868
     15  H        -0.1040142183    1.1571246493    0.9078199361
     16  H        -2.8443001915    1.1773269236   -0.4966454975
   Point Group: c1    Number of degrees of freedom:    42


   Energy is   -234.575105318

 Hessian Updated using BFGS Update

 42 Hessian modes will be used to form the next step
  Hessian Eigenvalues:
     0.000699    0.003792    0.008526    0.012323    0.014992    0.016389
     0.019269    0.021453    0.021671    0.023316    0.024826    0.025706
     0.032421    0.040522    0.054096    0.083639    0.117309    0.156254
     0.157434    0.159337    0.159972    0.159987    0.159990    0.160007
     0.160442    0.163409    0.173884    0.211764    0.337358    0.347534
     0.348125    0.348155    0.349181    0.351869    0.352328    0.352742
     0.353383    0.354681    0.393527    0.563573    0.579113    0.797774

 Minimum Search - Taking Simple RFO Step
 Searching for Lamda that Minimizes Along All modes
 Value Taken    Lamda =  -0.00001876
 Step Taken.  Stepsize is  0.060581

                             Maximum     Tolerance    Cnvgd?
         Gradient           0.000410      0.000300      NO
         Displacement       0.022088      0.001200      NO
         Energy change     -0.000010      0.000001      NO


 New Cartesian Coordinates Obtained by Inverse Iteration

 Displacement from previous Coordinates is:  0.086910
 ----------------------------------------------------------------
             Standard Nuclear Orientation (Angstroms)
    I     Atom           X                Y                Z
 ----------------------------------------------------------------
    1      C      -1.0380643085    -1.5704022015     0.2377944079
    2      C      -1.6927995202    -0.6642907676    -0.5001040754
    3      C      -1.9183067198     0.7416036789    -0.1330234096
    4      C      -1.0788236921     1.5112417191     0.5711261089
    5      C       2.7972312019    -0.3708332972     0.4073597686
    6      C       2.5077188087     0.3730391428    -0.6579877074
    7      H      -2.1296219727    -0.9822909259    -1.4475350746
    8      H      -0.6356268186    -1.3251606921     1.2172522344
    9      H      -0.8995803225    -2.5904413749    -0.1083162505
   10      H       3.7219864075    -0.2444509279     0.9652409737
   11      H       2.1170663870    -1.1398809394     0.7652231573
   12      H       1.5805224483     0.2420219729    -1.2097592119
   13      H       3.1847780808     1.1431558930    -1.0199783531
   14      H      -1.3315749241     2.5382986639     0.8185374489
   15      H      -0.1082589193     1.1522091695     0.9032530544
   16      H      -2.8496401365     1.1790108863    -0.4946560716
 ----------------------------------------------------------------
 Nuclear Repulsion Energy =   196.5282494029 hartrees
 There are       23 alpha and       23 beta electrons
 Applying Cartesian multipole field
    Component          Value
    ---------          -----
     (2,0,0)        1.00000E-11
     (0,2,0)        2.00000E-11
     (0,0,2)       -3.00000E-10
 Nucleus-field energy     =    -0.0000000074 hartrees
 length of FILE_MO_COEFS: 24420 
 Requested basis set is 6-31G(d)
 There are 44 shells and 110 basis functions
 in ParallelAOLoop for JobNumber:  2 JobType:  2 
 A cutoff of  1.0D-10 yielded    854 shell pairs
 There are      5507 function pairs
 in ParallelAOLoop for JobNumber: 11 JobType: 11 
 DoParallel is ON (aoloop_n) 
 Smallest overlap matrix eigenvalue = 3.50E-03
 Guess MOs from SCF MO coefficient file
 Reading MOs from coefficient file
 Reading MOs from coefficient file
 A restricted hybrid HF-DFT SCF calculation will be
 performed using Relaxed Constraint Minimization + Pulay DIIS
 Exchange:     0.2000 Hartree-Fock + 0.0800 Slater + 0.7200 B88
 Correlation:  0.1900 VWN1RPA + 0.8100 LYP
 Using SG-1 standard quadrature grid
 SCF converges when DIIS error is below 1.0E-06
 Geometry optimization detected.  Setting ReadMinima to 0
 Setting SaveMinima to 0
 in ParallelAOLoop for JobNumber: 22 JobType: 22 
 ---------------------------------------
  Cycle       Energy         DIIS Error
 ---------------------------------------
    1    -234.5774852033      1.29E-04 Done RCA. Switching to DIIS
 in ParallelAOLoop for JobNumber: 22 JobType: 22 
    2    -234.5751167776      1.22E-05
 in ParallelAOLoop for JobNumber: 22 JobType: 22 
    3    -234.5751171718      1.06E-05
 in ParallelAOLoop for JobNumber: 22 JobType: 22 
    4    -234.5751173295      4.74E-06
 in ParallelAOLoop for JobNumber: 22 JobType: 22 
    5    -234.5751173600      2.27E-06
 in ParallelAOLoop for JobNumber: 22 JobType: 22 
    6    -234.5751173677      3.14E-07 Convergence criterion met
 ---------------------------------------
 SCF time:  CPU 17.32 s  wall 17.40 s
 SCF   energy in the final basis set = -234.5751173677
 Total energy in the final basis set = -234.5751173677
 No wavefunction analysis requested
 Calculating analytic gradient of the SCF energy
 in ParallelAOLoop for JobNumber: 111 JobType: 11 
 DoParallel is ON (aoloop_n) 
 in ParallelAOLoop for JobNumber: 122 JobType: 22 
 Gradient of SCF Energy
            1           2           3           4           5           6
    1  -0.0001006   0.0001240   0.0001672  -0.0000508   0.0000481  -0.0000561
    2   0.0000813  -0.0001823   0.0002449  -0.0001744   0.0000940  -0.0001252
    3  -0.0000512   0.0000342   0.0002076  -0.0002349  -0.0002954   0.0001647
            7           8           9          10          11          12
    1   0.0001101   0.0000035  -0.0000458  -0.0001702  -0.0000570   0.0001303
    2   0.0000007  -0.0000630   0.0001957  -0.0000113   0.0002658   0.0000361
    3   0.0001164  -0.0001860   0.0000224  -0.0001145   0.0000207   0.0000741
           13          14          15          16
    1  -0.0000626  -0.0000209  -0.0001474   0.0001281
    2  -0.0001595  -0.0002019   0.0000558  -0.0000568
    3   0.0001549  -0.0000504   0.0000454   0.0000920
 Max gradient component =       2.954E-04
 RMS gradient           =       1.315E-04
 Gradient time:  CPU 7.54 s  wall 7.58 s
 Geometry Optimization Parameters
   NAtoms,    NIC,     NZ,  NCons,   NDum,   NFix, NCnnct, MaxDiis
       16      96       0       0       0       0       0       0

 Cartesian Hessian Update
 Hessian Updated using BFGS Update


** GEOMETRY OPTIMIZATION IN DELOCALIZED INTERNAL COORDINATES **
   Searching for a Minimum

   Optimization Cycle:   6

                       Coordinates (Angstroms)
     ATOM                X               Y               Z
      1  C        -1.0380643085   -1.5704022015    0.2377944079
      2  C        -1.6927995202   -0.6642907676   -0.5001040754
      3  C        -1.9183067198    0.7416036789   -0.1330234096
      4  C        -1.0788236921    1.5112417191    0.5711261089
      5  C         2.7972312019   -0.3708332972    0.4073597686
      6  C         2.5077188087    0.3730391428   -0.6579877074
      7  H        -2.1296219727   -0.9822909259   -1.4475350746
      8  H        -0.6356268186   -1.3251606921    1.2172522344
      9  H        -0.8995803225   -2.5904413749   -0.1083162505
     10  H         3.7219864075   -0.2444509279    0.9652409737
     11  H         2.1170663870   -1.1398809394    0.7652231573
     12  H         1.5805224483    0.2420219729   -1.2097592119
     13  H         3.1847780808    1.1431558930   -1.0199783531
     14  H        -1.3315749241    2.5382986639    0.8185374489
     15  H        -0.1082589193    1.1522091695    0.9032530544
     16  H        -2.8496401365    1.1790108863   -0.4946560716
   Point Group: c1    Number of degrees of freedom:    42


   Energy is   -234.575117368

 Hessian Updated using BFGS Update

 42 Hessian modes will be used to form the next step
  Hessian Eigenvalues:
     0.000699    0.002165    0.008262    0.012327    0.014690    0.016312
     0.019261    0.021487    0.021634    0.023185    0.024785    0.025702
     0.031973    0.040692    0.053099    0.083712    0.115072    0.156691
     0.157468    0.159387    0.159976    0.159989    0.160005    0.160079
     0.160412    0.167262    0.173619    0.212115    0.337755    0.347562
     0.348148    0.348194    0.349486    0.351869    0.352371    0.352822
     0.353384    0.354981    0.415081    0.563568    0.579075    1.023949

 Minimum Search - Taking Simple RFO Step
 Searching for Lamda that Minimizes Along All modes
 Value Taken    Lamda =  -0.00000877
 Step Taken.  Stepsize is  0.054885

                             Maximum     Tolerance    Cnvgd?
         Gradient           0.000461      0.000300      NO
         Displacement       0.020631      0.001200      NO
         Energy change     -0.000012      0.000001      NO


 New Cartesian Coordinates Obtained by Inverse Iteration

 Displacement from previous Coordinates is:  0.085558
 ----------------------------------------------------------------
             Standard Nuclear Orientation (Angstroms)
    I     Atom           X                Y                Z
 ----------------------------------------------------------------
    1      C      -1.0485755790    -1.5714928905     0.2391412751
    2      C      -1.7030176022    -0.6654863685    -0.4989286561
    3      C      -1.9250142674     0.7412776182    -0.1332411467
    4      C      -1.0825763656     1.5096949968     0.5684244944
    5      C       2.8105666566    -0.3702663036     0.4064204044
    6      C       2.5196162616     0.3764984426    -0.6563105778
    7      H      -2.1424481488    -0.9842077624    -1.4447500647
    8      H      -0.6440486145    -1.3249949955     1.2172656380
    9      H      -0.9128524469    -2.5921836001    -0.1056358962
   10      H       3.7337098085    -0.2415439521     0.9661758364
   11      H       2.1341405032    -1.1445604279     0.7595126649
   12      H       1.5945951307     0.2430819158    -1.2108061550
   13      H       3.1940382287     1.1509723650    -1.0134177762
   14      H      -1.3327464573     2.5373227369     0.8153345921
   15      H      -0.1123912701     1.1484001457     0.8986757894
   16      H      -2.8559898375     1.1803180795    -0.4934334218
 ----------------------------------------------------------------
 Nuclear Repulsion Energy =   196.2936741345 hartrees
 There are       23 alpha and       23 beta electrons
 Applying Cartesian multipole field
    Component          Value
    ---------          -----
     (2,0,0)        1.00000E-11
     (0,2,0)        2.00000E-11
     (0,0,2)       -3.00000E-10
 Nucleus-field energy     =    -0.0000000072 hartrees
 length of FILE_MO_COEFS: 24420 
 Requested basis set is 6-31G(d)
 There are 44 shells and 110 basis functions
 in ParallelAOLoop for JobNumber:  2 JobType:  2 
 A cutoff of  1.0D-10 yielded    853 shell pairs
 There are      5471 function pairs
 in ParallelAOLoop for JobNumber: 11 JobType: 11 
 DoParallel is ON (aoloop_n) 
 Smallest overlap matrix eigenvalue = 3.50E-03
 Guess MOs from SCF MO coefficient file
 Reading MOs from coefficient file
 Reading MOs from coefficient file
 A restricted hybrid HF-DFT SCF calculation will be
 performed using Relaxed Constraint Minimization + Pulay DIIS
 Exchange:     0.2000 Hartree-Fock + 0.0800 Slater + 0.7200 B88
 Correlation:  0.1900 VWN1RPA + 0.8100 LYP
 Using SG-1 standard quadrature grid
 SCF converges when DIIS error is below 1.0E-06
 Geometry optimization detected.  Setting ReadMinima to 0
 Setting SaveMinima to 0
 in ParallelAOLoop for JobNumber: 22 JobType: 22 
 ---------------------------------------
  Cycle       Energy         DIIS Error
 ---------------------------------------
    1    -234.5754174054      1.33E-04 Done RCA. Switching to DIIS
 in ParallelAOLoop for JobNumber: 22 JobType: 22 
    2    -234.5751238448      1.10E-05
 in ParallelAOLoop for JobNumber: 22 JobType: 22 
    3    -234.5751243084      7.63E-06
 in ParallelAOLoop for JobNumber: 22 JobType: 22 
    4    -234.5751243524      6.06E-06
 in ParallelAOLoop for JobNumber: 22 JobType: 22 
    5    -234.5751244110      1.41E-06
 in ParallelAOLoop for JobNumber: 22 JobType: 22 
    6    -234.5751244139      3.27E-07 Convergence criterion met
 ---------------------------------------
 SCF time:  CPU 17.79 s  wall 17.87 s
 SCF   energy in the final basis set = -234.5751244139
 Total energy in the final basis set = -234.5751244139
 No wavefunction analysis requested
 Calculating analytic gradient of the SCF energy
 in ParallelAOLoop for JobNumber: 111 JobType: 11 
 DoParallel is ON (aoloop_n) 
 in ParallelAOLoop for JobNumber: 122 JobType: 22 
 Gradient of SCF Energy
            1           2           3           4           5           6
    1  -0.0000962   0.0001755   0.0002109  -0.0000598  -0.0000138  -0.0000787
    2   0.0000538  -0.0002465   0.0003293  -0.0001616   0.0001746  -0.0001316
    3  -0.0000376   0.0000294   0.0002703  -0.0002167  -0.0003305   0.0002023
            7           8           9          10          11          12
    1   0.0001361  -0.0000700  -0.0000852  -0.0002303   0.0000485   0.0002398
    2   0.0000050  -0.0000357   0.0003033  -0.0000135   0.0003206   0.0000144
    3   0.0002048  -0.0002736   0.0000210  -0.0001957  -0.0000443   0.0001470
           13          14          15          16
    1  -0.0000751  -0.0000426  -0.0002661   0.0002070
    2  -0.0002669  -0.0003119   0.0000360  -0.0000694
    3   0.0002164  -0.0000938  -0.0000245   0.0001254
 Max gradient component =       3.305E-04
 RMS gradient           =       1.768E-04
 Gradient time:  CPU 9.11 s  wall 9.16 s
 Geometry Optimization Parameters
   NAtoms,    NIC,     NZ,  NCons,   NDum,   NFix, NCnnct, MaxDiis
       16      96       0       0       0       0       0       0

 Cartesian Hessian Update
 Hessian Updated using BFGS Update


** GEOMETRY OPTIMIZATION IN DELOCALIZED INTERNAL COORDINATES **
   Searching for a Minimum

   Optimization Cycle:   7

                       Coordinates (Angstroms)
     ATOM                X               Y               Z
      1  C        -1.0485755790   -1.5714928905    0.2391412751
      2  C        -1.7030176022   -0.6654863685   -0.4989286561
      3  C        -1.9250142674    0.7412776182   -0.1332411467
      4  C        -1.0825763656    1.5096949968    0.5684244944
      5  C         2.8105666566   -0.3702663036    0.4064204044
      6  C         2.5196162616    0.3764984426   -0.6563105778
      7  H        -2.1424481488   -0.9842077624   -1.4447500647
      8  H        -0.6440486145   -1.3249949955    1.2172656380
      9  H        -0.9128524469   -2.5921836001   -0.1056358962
     10  H         3.7337098085   -0.2415439521    0.9661758364
     11  H         2.1341405032   -1.1445604279    0.7595126649
     12  H         1.5945951307    0.2430819158   -1.2108061550
     13  H         3.1940382287    1.1509723650   -1.0134177762
     14  H        -1.3327464573    2.5373227369    0.8153345921
     15  H        -0.1123912701    1.1484001457    0.8986757894
     16  H        -2.8559898375    1.1803180795   -0.4934334218
   Point Group: c1    Number of degrees of freedom:    42


   Energy is   -234.575124414

 Hessian Updated using BFGS Update

 42 Hessian modes will be used to form the next step
  Hessian Eigenvalues:
     0.000692    0.000979    0.008086    0.012514    0.014318    0.016268
     0.019608    0.021505    0.021644    0.023091    0.024727    0.025699
     0.031304    0.040172    0.052660    0.083813    0.113837    0.157069
     0.157763    0.159391    0.159987    0.159998    0.160008    0.160032
     0.160374    0.167019    0.173596    0.211925    0.337750    0.347626
     0.348153    0.348180    0.349520    0.351880    0.352394    0.352798
     0.353387    0.354971    0.415502    0.563720    0.578799    0.966410

 Minimum Search - Taking Simple RFO Step
 Searching for Lamda that Minimizes Along All modes
 Value Taken    Lamda =  -0.00001667
 Step Taken.  Stepsize is  0.113674

                             Maximum     Tolerance    Cnvgd?
         Gradient           0.000668      0.000300      NO
         Displacement       0.044053      0.001200      NO
         Energy change     -0.000007      0.000001      NO


 New Cartesian Coordinates Obtained by Inverse Iteration

 Displacement from previous Coordinates is:  0.172172
 ----------------------------------------------------------------
             Standard Nuclear Orientation (Angstroms)
    I     Atom           X                Y                Z
 ----------------------------------------------------------------
    1      C      -1.0686942745    -1.5732120123     0.2410021919
    2      C      -1.7237273683    -0.6671838026    -0.4966398725
    3      C      -1.9394973611     0.7411992561    -0.1334358243
    4      C      -1.0910309842     1.5079655245     0.5629653643
    5      C       2.8393675616    -0.3707266632     0.4048702735
    6      C       2.5428019029     0.3814102586    -0.6526236451
    7      H      -2.1682180863    -0.9867630211    -1.4398304040
    8      H      -0.6599108804    -1.3252199778     1.2170334547
    9      H      -0.9371906973    -2.5951503349    -0.1018302156
   10      H       3.7586727887    -0.2348369921     0.9693321398
   11      H       2.1715491410    -1.1565156815     0.7487456644
   12      H       1.6214086233     0.2411275396    -1.2115456204
   13      H       3.2083041640     1.1676991078    -1.0006332133
   14      H      -1.3357335297     2.5371795908     0.8088402945
   15      H      -0.1207751082     1.1429613879     0.8890307976
   16      H      -2.8703198914     1.1828958202    -0.4908543856
 ----------------------------------------------------------------
 Nuclear Repulsion Energy =   195.7823341966 hartrees
 There are       23 alpha and       23 beta electrons
 Applying Cartesian multipole field
    Component          Value
    ---------          -----
     (2,0,0)        1.00000E-11
     (0,2,0)        2.00000E-11
     (0,0,2)       -3.00000E-10
 Nucleus-field energy     =    -0.0000000069 hartrees
 length of FILE_MO_COEFS: 24420 
 Requested basis set is 6-31G(d)
 There are 44 shells and 110 basis functions
 in ParallelAOLoop for JobNumber:  2 JobType:  2 
 A cutoff of  1.0D-10 yielded    852 shell pairs
 There are      5465 function pairs
 in ParallelAOLoop for JobNumber: 11 JobType: 11 
 DoParallel is ON (aoloop_n) 
 Smallest overlap matrix eigenvalue = 3.50E-03
 Guess MOs from SCF MO coefficient file
 Reading MOs from coefficient file
 Reading MOs from coefficient file
 A restricted hybrid HF-DFT SCF calculation will be
 performed using Relaxed Constraint Minimization + Pulay DIIS
 Exchange:     0.2000 Hartree-Fock + 0.0800 Slater + 0.7200 B88
 Correlation:  0.1900 VWN1RPA + 0.8100 LYP
 Using SG-1 standard quadrature grid
 SCF converges when DIIS error is below 1.0E-06
 Geometry optimization detected.  Setting ReadMinima to 0
 Setting SaveMinima to 0
 in ParallelAOLoop for JobNumber: 22 JobType: 22 
 ---------------------------------------
  Cycle       Energy         DIIS Error
 ---------------------------------------
    1    -234.5740463626      2.79E-04 Done RCA. Switching to DIIS
 in ParallelAOLoop for JobNumber: 22 JobType: 22 
    2    -234.5751322592      2.56E-05
 in ParallelAOLoop for JobNumber: 22 JobType: 22 
    3    -234.5751346716      1.70E-05
 in ParallelAOLoop for JobNumber: 22 JobType: 22 
    4    -234.5751350057      1.05E-05
 in ParallelAOLoop for JobNumber: 22 JobType: 22 
    5    -234.5751351568      4.76E-06
 in ParallelAOLoop for JobNumber: 22 JobType: 22 
    6    -234.5751351931      6.73E-07 Convergence criterion met
 ---------------------------------------
 SCF time:  CPU 16.91 s  wall 17.27 s
 SCF   energy in the final basis set = -234.5751351931
 Total energy in the final basis set = -234.5751351931
 No wavefunction analysis requested
 Calculating analytic gradient of the SCF energy
 in ParallelAOLoop for JobNumber: 111 JobType: 11 
 DoParallel is ON (aoloop_n) 
 in ParallelAOLoop for JobNumber: 122 JobType: 22 
 Gradient of SCF Energy
            1           2           3           4           5           6
    1  -0.0000532   0.0001349   0.0001448  -0.0000248   0.0000080  -0.0000395
    2  -0.0000185  -0.0002029   0.0002561  -0.0000622   0.0000818  -0.0001130
    3   0.0000083   0.0000097   0.0002075  -0.0000791  -0.0002450   0.0001104
            7           8           9          10          11          12
    1   0.0001048  -0.0001177  -0.0000796  -0.0001968   0.0000708   0.0002296
    2   0.0000071  -0.0000125   0.0002784   0.0000140   0.0003325   0.0000109
    3   0.0001927  -0.0002313  -0.0000023  -0.0001700  -0.0000813   0.0001591
           13          14          15          16
    1  -0.0000631  -0.0000507  -0.0002628   0.0001954
    2  -0.0002308  -0.0002805  -0.0000108  -0.0000495
    3   0.0001982  -0.0000946  -0.0000783   0.0000958
 Max gradient component =       3.325E-04
 RMS gradient           =       1.497E-04
 Gradient time:  CPU 7.79 s  wall 8.78 s
 Geometry Optimization Parameters
   NAtoms,    NIC,     NZ,  NCons,   NDum,   NFix, NCnnct, MaxDiis
       16      96       0       0       0       0       0       0

 Cartesian Hessian Update
 Hessian Updated using BFGS Update


** GEOMETRY OPTIMIZATION IN DELOCALIZED INTERNAL COORDINATES **
   Searching for a Minimum

   Optimization Cycle:   8

                       Coordinates (Angstroms)
     ATOM                X               Y               Z
      1  C        -1.0686942745   -1.5732120123    0.2410021919
      2  C        -1.7237273683   -0.6671838026   -0.4966398725
      3  C        -1.9394973611    0.7411992561   -0.1334358243
      4  C        -1.0910309842    1.5079655245    0.5629653643
      5  C         2.8393675616   -0.3707266632    0.4048702735
      6  C         2.5428019029    0.3814102586   -0.6526236451
      7  H        -2.1682180863   -0.9867630211   -1.4398304040
      8  H        -0.6599108804   -1.3252199778    1.2170334547
      9  H        -0.9371906973   -2.5951503349   -0.1018302156
     10  H         3.7586727887   -0.2348369921    0.9693321398
     11  H         2.1715491410   -1.1565156815    0.7487456644
     12  H         1.6214086233    0.2411275396   -1.2115456204
     13  H         3.2083041640    1.1676991078   -1.0006332133
     14  H        -1.3357335297    2.5371795908    0.8088402945
     15  H        -0.1207751082    1.1429613879    0.8890307976
     16  H        -2.8703198914    1.1828958202   -0.4908543856
   Point Group: c1    Number of degrees of freedom:    42


   Energy is   -234.575135193

 Hessian Updated using BFGS Update

 42 Hessian modes will be used to form the next step
  Hessian Eigenvalues:
     0.000636    0.000940    0.008006    0.012584    0.014048    0.016243
     0.019611    0.021490    0.021627    0.023045    0.024704    0.025698
     0.030892    0.039888    0.052448    0.083865    0.113073    0.157344
     0.158692    0.159391    0.159930    0.159989    0.160002    0.160018
     0.160340    0.164223    0.173705    0.211764    0.337692    0.347650
     0.348145    0.348164    0.349453    0.351882    0.352394    0.352774
     0.353387    0.354871    0.405015    0.563728    0.578549    0.844600

 Minimum Search - Taking Simple RFO Step
 Searching for Lamda that Minimizes Along All modes
 Value Taken    Lamda =  -0.00000630
 Step Taken.  Stepsize is  0.056738

                             Maximum     Tolerance    Cnvgd?
         Gradient           0.000555      0.000300      NO
         Displacement       0.019836      0.001200      NO
         Energy change     -0.000011      0.000001      NO


 New Cartesian Coordinates Obtained by Inverse Iteration

 Displacement from previous Coordinates is:  0.078065
 ----------------------------------------------------------------
             Standard Nuclear Orientation (Angstroms)
    I     Atom           X                Y                Z
 ----------------------------------------------------------------
    1      C      -1.0750107388    -1.5723340481     0.2393322951
    2      C      -1.7308222379    -0.6657621815    -0.4973390371
    3      C      -1.9468128108     0.7423982036    -0.1330744863
    4      C      -1.0968694014     1.5093804308     0.5618260256
    5      C       2.8543134265    -0.3718010725     0.4061599787
    6      C       2.5496551539     0.3788441499    -0.6504866885
    7      H      -2.1756559611    -0.9844673652    -1.4409026111
    8      H      -0.6665012564    -1.3255069626     1.2160164529
    9      H      -0.9430019562    -2.5942234480    -0.1042772283
   10      H       3.7735517919    -0.2292971671     0.9695404792
   11      H       2.1931322767    -1.1634013915     0.7502086867
   12      H       1.6283689019     0.2309286429    -1.2081716720
   13      H       3.2075895241     1.1711619427    -0.9999762889
   14      H      -1.3406334974     2.5388297338     0.8087616161
   15      H      -0.1255054117     1.1443554186     0.8853647048
   16      H      -2.8787918033     1.1837251140    -0.4885552270
 ----------------------------------------------------------------
 Nuclear Repulsion Energy =   195.5483701307 hartrees
 There are       23 alpha and       23 beta electrons
 Applying Cartesian multipole field
    Component          Value
    ---------          -----
     (2,0,0)        1.00000E-11
     (0,2,0)        2.00000E-11
     (0,0,2)       -3.00000E-10
 Nucleus-field energy     =    -0.0000000068 hartrees
 length of FILE_MO_COEFS: 24420 
 Requested basis set is 6-31G(d)
 There are 44 shells and 110 basis functions
 in ParallelAOLoop for JobNumber:  2 JobType:  2 
 A cutoff of  1.0D-10 yielded    849 shell pairs
 There are      5416 function pairs
 in ParallelAOLoop for JobNumber: 11 JobType: 11 
 DoParallel is ON (aoloop_n) 
 Smallest overlap matrix eigenvalue = 3.51E-03
 Guess MOs from SCF MO coefficient file
 Reading MOs from coefficient file
 Reading MOs from coefficient file
 A restricted hybrid HF-DFT SCF calculation will be
 performed using Relaxed Constraint Minimization + Pulay DIIS
 Exchange:     0.2000 Hartree-Fock + 0.0800 Slater + 0.7200 B88
 Correlation:  0.1900 VWN1RPA + 0.8100 LYP
 Using SG-1 standard quadrature grid
 SCF converges when DIIS error is below 1.0E-06
 Geometry optimization detected.  Setting ReadMinima to 0
 Setting SaveMinima to 0
 in ParallelAOLoop for JobNumber: 22 JobType: 22 
 ---------------------------------------
  Cycle       Energy         DIIS Error
 ---------------------------------------
    1    -234.5737331544      1.53E-04 Done RCA. Switching to DIIS
 in ParallelAOLoop for JobNumber: 22 JobType: 22 
    2    -234.5751388035      1.38E-05
 in ParallelAOLoop for JobNumber: 22 JobType: 22 
    3    -234.5751392876      1.02E-05
 in ParallelAOLoop for JobNumber: 22 JobType: 22 
    4    -234.5751394222      5.26E-06
 in ParallelAOLoop for JobNumber: 22 JobType: 22 
    5    -234.5751394584      2.41E-06
 in ParallelAOLoop for JobNumber: 22 JobType: 22 
    6    -234.5751394675      3.46E-07 Convergence criterion met
 ---------------------------------------
 SCF time:  CPU 16.71 s  wall 18.66 s
 SCF   energy in the final basis set = -234.5751394675
 Total energy in the final basis set = -234.5751394675
 No wavefunction analysis requested
 Calculating analytic gradient of the SCF energy
 in ParallelAOLoop for JobNumber: 111 JobType: 11 
 DoParallel is ON (aoloop_n) 
 in ParallelAOLoop for JobNumber: 122 JobType: 22 
 Gradient of SCF Energy
            1           2           3           4           5           6
    1   0.0000040   0.0000621   0.0000206   0.0000165   0.0000759  -0.0000281
    2  -0.0000299  -0.0000669   0.0000763   0.0000121  -0.0000405  -0.0000012
    3   0.0000166  -0.0000071   0.0000650   0.0000097  -0.0000553   0.0000478
            7           8           9          10          11          12
    1   0.0000324  -0.0000918  -0.0000293  -0.0000560  -0.0000192   0.0000967
    2   0.0000030  -0.0000422   0.0001004   0.0000044   0.0002238  -0.0000072
    3   0.0000739  -0.0000725  -0.0000122  -0.0000694  -0.0000561   0.0000357
           13          14          15          16
    1  -0.0000159  -0.0000246  -0.0001149   0.0000716
    2  -0.0000843  -0.0001015  -0.0000332  -0.0000131
    3   0.0000610  -0.0000362  -0.0000377   0.0000369
 Max gradient component =       2.238E-04
 RMS gradient           =       6.210E-05
 Gradient time:  CPU 7.51 s  wall 7.57 s
 Geometry Optimization Parameters
   NAtoms,    NIC,     NZ,  NCons,   NDum,   NFix, NCnnct, MaxDiis
       16      96       0       0       0       0       0       0

 Cartesian Hessian Update
 Hessian Updated using BFGS Update


** GEOMETRY OPTIMIZATION IN DELOCALIZED INTERNAL COORDINATES **
   Searching for a Minimum

   Optimization Cycle:   9

                       Coordinates (Angstroms)
     ATOM                X               Y               Z
      1  C        -1.0750107388   -1.5723340481    0.2393322951
      2  C        -1.7308222379   -0.6657621815   -0.4973390371
      3  C        -1.9468128108    0.7423982036   -0.1330744863
      4  C        -1.0968694014    1.5093804308    0.5618260256
      5  C         2.8543134265   -0.3718010725    0.4061599787
      6  C         2.5496551539    0.3788441499   -0.6504866885
      7  H        -2.1756559611   -0.9844673652   -1.4409026111
      8  H        -0.6665012564   -1.3255069626    1.2160164529
      9  H        -0.9430019562   -2.5942234480   -0.1042772283
     10  H         3.7735517919   -0.2292971671    0.9695404792
     11  H         2.1931322767   -1.1634013915    0.7502086867
     12  H         1.6283689019    0.2309286429   -1.2081716720
     13  H         3.2075895241    1.1711619427   -0.9999762889
     14  H        -1.3406334974    2.5388297338    0.8087616161
     15  H        -0.1255054117    1.1443554186    0.8853647048
     16  H        -2.8787918033    1.1837251140   -0.4885552270
   Point Group: c1    Number of degrees of freedom:    42


   Energy is   -234.575139468

 Hessian Updated using BFGS Update

 42 Hessian modes will be used to form the next step
  Hessian Eigenvalues:
     0.000676    0.000899    0.007679    0.011551    0.013469    0.016205
     0.019610    0.021387    0.021601    0.022905    0.024403    0.025655
     0.029172    0.038922    0.052018    0.082112    0.111013    0.153718
     0.157484    0.159375    0.159962    0.159993    0.160009    0.160108
     0.160355    0.164459    0.173643    0.212063    0.337850    0.347632
     0.347786    0.348157    0.348928    0.351866    0.352385    0.352788
     0.353387    0.354568    0.392586    0.563706    0.578745    0.783375

 Minimum Search - Taking Simple RFO Step
 Searching for Lamda that Minimizes Along All modes
 Value Taken    Lamda =  -0.00000313
 Step Taken.  Stepsize is  0.026996

                             Maximum     Tolerance    Cnvgd?
         Gradient           0.000200      0.000300     YES
         Displacement       0.009965      0.001200      NO
         Energy change     -0.000004      0.000001      NO


 New Cartesian Coordinates Obtained by Inverse Iteration

 Displacement from previous Coordinates is:  0.044720
 ----------------------------------------------------------------
             Standard Nuclear Orientation (Angstroms)
    I     Atom           X                Y                Z
 ----------------------------------------------------------------
    1      C      -1.0756328475    -1.5707540237     0.2387668041
    2      C      -1.7340188813    -0.6650172189    -0.4969405875
    3      C      -1.9509911904     0.7431659382    -0.1331715637
    4      C      -1.1009087408     1.5117210514     0.5602090355
    5      C       2.8615663962    -0.3754110579     0.4058147329
    6      C       2.5523943622     0.3774654290    -0.6482065482
    7      H      -2.1801992836    -0.9843994328    -1.4398340198
    8      H      -0.6654777700    -1.3237168568     1.2149326362
    9      H      -0.9429981144    -2.5928248839    -0.1047226255
   10      H       3.7802463461    -0.2303141603     0.9697673765
   11      H       2.2040908260    -1.1713971142     0.7473585451
   12      H       1.6311767275     0.2267761714    -1.2056629721
   13      H       3.2054550169     1.1748957521    -0.9958025570
   14      H      -1.3451050820     2.5413460491     0.8068641703
   15      H      -0.1284917230     1.1481611898     0.8829199888
   16      H      -2.8841000418     1.1831331676    -0.4878654158
 ----------------------------------------------------------------
 Nuclear Repulsion Energy =   195.4351516007 hartrees
 There are       23 alpha and       23 beta electrons
 Applying Cartesian multipole field
    Component          Value
    ---------          -----
     (2,0,0)        1.00000E-11
     (0,2,0)        2.00000E-11
     (0,0,2)       -3.00000E-10
 Nucleus-field energy     =    -0.0000000067 hartrees
 length of FILE_MO_COEFS: 24420 
 Requested basis set is 6-31G(d)
 There are 44 shells and 110 basis functions
 in ParallelAOLoop for JobNumber:  2 JobType:  2 
 A cutoff of  1.0D-10 yielded    849 shell pairs
 There are      5416 function pairs
 in ParallelAOLoop for JobNumber: 11 JobType: 11 
 DoParallel is ON (aoloop_n) 
 Smallest overlap matrix eigenvalue = 3.51E-03
 Guess MOs from SCF MO coefficient file
 Reading MOs from coefficient file
 Reading MOs from coefficient file
 A restricted hybrid HF-DFT SCF calculation will be
 performed using Relaxed Constraint Minimization + Pulay DIIS
 Exchange:     0.2000 Hartree-Fock + 0.0800 Slater + 0.7200 B88
 Correlation:  0.1900 VWN1RPA + 0.8100 LYP
 Using SG-1 standard quadrature grid
 SCF converges when DIIS error is below 1.0E-06
 Geometry optimization detected.  Setting ReadMinima to 0
 Setting SaveMinima to 0
 in ParallelAOLoop for JobNumber: 22 JobType: 22 
 ---------------------------------------
  Cycle       Energy         DIIS Error
 ---------------------------------------
    1    -234.5741570870      1.31E-04 Done RCA. Switching to DIIS
 in ParallelAOLoop for JobNumber: 22 JobType: 22 
    2    -234.5751412813      1.08E-05
 in ParallelAOLoop for JobNumber: 22 JobType: 22 
    3    -234.5751416658      7.50E-06
 in ParallelAOLoop for JobNumber: 22 JobType: 22 
    4    -234.5751417260      4.89E-06
 in ParallelAOLoop for JobNumber: 22 JobType: 22 
    5    -234.5751417624      1.55E-06
 in ParallelAOLoop for JobNumber: 22 JobType: 22 
    6    -234.5751417665      3.44E-07 Convergence criterion met
 ---------------------------------------
 SCF time:  CPU 17.07 s  wall 20.80 s
 SCF   energy in the final basis set = -234.5751417665
 Total energy in the final basis set = -234.5751417665
 No wavefunction analysis requested
 Calculating analytic gradient of the SCF energy
 in ParallelAOLoop for JobNumber: 111 JobType: 11 
 DoParallel is ON (aoloop_n) 
 in ParallelAOLoop for JobNumber: 122 JobType: 22 
 Gradient of SCF Energy
            1           2           3           4           5           6
    1   0.0000237  -0.0000182  -0.0000432   0.0000228   0.0001498   0.0000047
    2  -0.0000216   0.0000394  -0.0000467   0.0000372  -0.0001478   0.0000258
    3   0.0000063  -0.0000082  -0.0000417   0.0000445   0.0000485  -0.0000230
            7           8           9          10          11          12
    1  -0.0000194  -0.0000350   0.0000143   0.0000315  -0.0001046  -0.0000171
    2   0.0000003  -0.0000754  -0.0000407   0.0000127   0.0001523   0.0000022
    3  -0.0000304   0.0000637  -0.0000145   0.0000246  -0.0000278  -0.0000332
           13          14          15          16
    1   0.0000056   0.0000001   0.0000135  -0.0000285
    2   0.0000462   0.0000354  -0.0000263   0.0000068
    3  -0.0000288   0.0000175   0.0000150  -0.0000125
 Max gradient component =       1.523E-04
 RMS gradient           =       4.992E-05
 Gradient time:  CPU 7.44 s  wall 9.50 s
 Geometry Optimization Parameters
   NAtoms,    NIC,     NZ,  NCons,   NDum,   NFix, NCnnct, MaxDiis
       16      96       0       0       0       0       0       0

 Cartesian Hessian Update
 Hessian Updated using BFGS Update


** GEOMETRY OPTIMIZATION IN DELOCALIZED INTERNAL COORDINATES **
   Searching for a Minimum

   Optimization Cycle:  10

                       Coordinates (Angstroms)
     ATOM                X               Y               Z
      1  C        -1.0756328475   -1.5707540237    0.2387668041
      2  C        -1.7340188813   -0.6650172189   -0.4969405875
      3  C        -1.9509911904    0.7431659382   -0.1331715637
      4  C        -1.1009087408    1.5117210514    0.5602090355
      5  C         2.8615663962   -0.3754110579    0.4058147329
      6  C         2.5523943622    0.3774654290   -0.6482065482
      7  H        -2.1801992836   -0.9843994328   -1.4398340198
      8  H        -0.6654777700   -1.3237168568    1.2149326362
      9  H        -0.9429981144   -2.5928248839   -0.1047226255
     10  H         3.7802463461   -0.2303141603    0.9697673765
     11  H         2.2040908260   -1.1713971142    0.7473585451
     12  H         1.6311767275    0.2267761714   -1.2056629721
     13  H         3.2054550169    1.1748957521   -0.9958025570
     14  H        -1.3451050820    2.5413460491    0.8068641703
     15  H        -0.1284917230    1.1481611898    0.8829199888
     16  H        -2.8841000418    1.1831331676   -0.4878654158
   Point Group: c1    Number of degrees of freedom:    42


   Energy is   -234.575141766

 Hessian Updated using BFGS Update

 42 Hessian modes will be used to form the next step
  Hessian Eigenvalues:
     0.000681    0.000901    0.004900    0.009060    0.013365    0.016282
     0.019807    0.021005    0.021571    0.022626    0.023970    0.025621
     0.027608    0.038183    0.049897    0.080697    0.107901    0.147679
     0.157494    0.159370    0.159962    0.159994    0.160013    0.160063
     0.160333    0.172357    0.173503    0.212361    0.337815    0.347560
     0.347943    0.348182    0.349250    0.351888    0.352410    0.352799
     0.353387    0.354808    0.414190    0.563688    0.579219    0.952787

 Minimum Search - Taking Simple RFO Step
 Searching for Lamda that Minimizes Along All modes
 Value Taken    Lamda =  -0.00000355
 Step Taken.  Stepsize is  0.030093

                             Maximum     Tolerance    Cnvgd?
         Gradient           0.000163      0.000300     YES
         Displacement       0.010406      0.001200      NO
         Energy change     -0.000002      0.000001      NO


 New Cartesian Coordinates Obtained by Inverse Iteration

 Displacement from previous Coordinates is:  0.058759
 ----------------------------------------------------------------
             Standard Nuclear Orientation (Angstroms)
    I     Atom           X                Y                Z
 ----------------------------------------------------------------
    1      C      -1.0722405867    -1.5671499023     0.2375156696
    2      C      -1.7351958111    -0.6634162376    -0.4967718891
    3      C      -1.9553572626     0.7443842627    -0.1333219773
    4      C      -1.1063568638     1.5159058897     0.5584001809
    5      C       2.8677473001    -0.3817259199     0.4054098791
    6      C       2.5521885228     0.3743427097    -0.6446822774
    7      H      -2.1828157327    -0.9842845308    -1.4386453651
    8      H      -0.6600304360    -1.3190905523     1.2127357895
    9      H      -0.9375791190    -2.5891993441    -0.1058469830
   10      H       3.7866109151    -0.2341959782     0.9687182648
   11      H       2.2152982788    -1.1832228507     0.7442293609
   12      H       1.6306367587     0.2207382522    -1.2011535653
   13      H       3.1995209206     1.1775253511    -0.9902733659
   14      H      -1.3527299127     2.5452764091     0.8047560753
   15      H      -0.1323180852     1.1554808954     0.8803687080
[...]
  H     -0.13967684      1.17069627      0.87451448
  H     -2.90222145      1.17756554     -0.48525691
  16
Step 13
  C     -1.04741809     -1.54581140      0.23163253
  C     -1.73632037     -0.65564597     -0.49548736
  C     -1.97356698      0.74997127     -0.13440510
  C     -1.13065928      1.53637779      0.54809469
  C      2.88845330     -0.41580202      0.40181198
  C      2.54419824      0.35860374     -0.62589182
  H     -2.19304362     -0.98713270     -1.42940933
  H     -0.62285009     -1.28747466      1.19905118
  H     -0.90204991     -2.56729150     -0.10963286
  H      3.80726924     -0.25798923      0.96266594
  H      2.26158194     -1.24459691      0.72351825
  H      1.62247300      0.19446359     -1.17929424
  H      3.16608943      1.18863813     -0.95478061
  H     -1.38996463      2.56305835      0.79309816
  H     -0.14926339      1.19139895      0.86526970
  H     -2.91792280      1.17206256     -0.48181410
  16
Step 14
  C     -1.03207842     -1.53323682      0.22693019
  C     -1.73497964     -0.65069802     -0.49581126
  C     -1.98169565      0.75322560     -0.13459339
  C     -1.14164927      1.54672465      0.54282481
  C      2.89699853     -0.43297298      0.40105199
  C      2.53553453      0.34792423     -0.61550294
  H     -2.19634434     -0.98782786     -1.42521753
  H     -0.60176517     -1.26878955      1.18992442
  H     -0.88062656     -2.55375849     -0.11389855
  H      3.81586760     -0.26673889      0.95905632
  H      2.28640015     -1.27637307      0.71556611
  H      1.61406157      0.17591235     -1.16645884
  H      3.14292834      1.19151698     -0.93621287
  H     -1.40814610      2.57118628      0.78844137
  H     -0.15642867      1.20917804      0.85542560
  H     -2.93107089      1.16755755     -0.47709842
  16
Step 15
  C     -1.01912374     -1.52317185      0.22107456
  C     -1.73197953     -0.64560832     -0.49771897
  C     -1.98633710      0.75636307     -0.13432931
  C     -1.14823302      1.55443071      0.53976947
  C      2.90275182     -0.44438599      0.40257524
  C      2.52399775      0.33657980     -0.60734522
  H     -2.19576744     -0.98574133     -1.42462461
  H     -0.58609936     -1.25532763      1.18167215
  H     -0.86245454     -2.54229365     -0.12091335
  H      3.82259976     -0.26764563      0.95539058
  H      2.30744528     -1.29880479      0.71614126
  H      1.60210740      0.15446679     -1.15388894
  H      3.11796831      1.19013645     -0.92615724
  H     -1.42028208      2.57670086      0.78744518
  H     -0.15986267      1.22213848      0.84730572
  H     -2.93972485      1.16499303     -0.47196953
  16
Step 16
  C     -0.99873520     -1.50748144      0.21021164
  C     -1.72676217     -0.63689884     -0.50164930
  C     -1.99260747      0.76169998     -0.13378432
  C     -1.15688458      1.56621297      0.53515348
  C      2.91213904     -0.46076031      0.40633688
  C      2.50311247      0.31693510     -0.59401144
  H     -2.19422923     -0.98071918     -1.42515671
  H     -0.56162693     -1.23575812      1.16769384
  H     -0.83412385     -2.52421492     -0.13451968
  H      3.83356622     -0.26474745      0.94961139
  H      2.34259307     -1.33209988      0.72082294
  H      1.58004754      0.11584193     -1.13130014
  H      3.07314802      1.18640233     -0.91288016
  H     -1.43673588      2.58510959      0.78706102
  H     -0.16349988      1.24161068      0.83384903
  H     -2.95239517      1.16169755     -0.46301148
  16
Step 17
  C     -0.96037860     -1.47809769      0.18739977
  C     -1.71714159     -0.62035271     -0.50974299
  C     -2.00250318      0.77180040     -0.13279766
  C     -1.16917774      1.58697480      0.52532276
  C      2.92900643     -0.48880621      0.41475527
  C      2.45908587      0.27895018     -0.56609148
  H     -2.19286373     -0.97061174     -1.42634908
  H     -0.51397947     -1.20003691      1.13862765
  H     -0.78214639     -2.49025802     -0.16318855
  H      3.85326817     -0.25449717      0.93715810
  H      2.41113210     -1.39063131      0.73277851
  H      1.53389049      0.03971952     -1.08266452
  H      2.98041583      1.17725586     -0.88748952
  H     -1.46076172      2.60006924      0.78593281
  H     -0.16689728      1.27476643      0.80559974
  H     -2.97394320      1.15658531     -0.44482378
  16
Step 18
  C     -0.98690386     -1.49897866      0.20023640
  C     -1.72450896     -0.63143789     -0.50534295
  C     -1.99378905      0.76554818     -0.13380901
  C     -1.15663926      1.57264236      0.53043067
  C      2.91908478     -0.46861007      0.41113568
  C      2.48325093      0.30377839     -0.58187689
  H     -2.19692784     -0.97656649     -1.42575557
  H     -0.54503437     -1.22554242      1.15486369
  H     -0.81973973     -2.51446807     -0.14668087
  H      3.84170465     -0.25500261      0.94548235
  H      2.37170935     -1.35298633      0.72793844
  H      1.55928133      0.08495505     -1.11061549
  H      3.03190531      1.18595739     -0.90302360
  H     -1.43920922      2.58983271      0.78573372
  H     -0.15973909      1.25170571      0.82140192
  H     -2.95743896      1.16200274     -0.45569149
  16
Step 19
  C     -0.98840513     -1.49924116      0.19657963
  C     -1.72722198     -0.63075620     -0.50663560
  C     -1.99302211      0.76664652     -0.13428795
  C     -1.15254461      1.57243191      0.52742422
  C      2.92403473     -0.46776701      0.41365689
  C      2.47722520      0.30189262     -0.57670675
  H     -2.20334476     -0.97519454     -1.42542751
  H     -0.54303285     -1.22613443      1.14970204
  H     -0.82387610     -2.51511114     -0.15058780
  H      3.84634351     -0.24599434      0.94523395
  H      2.38616931     -1.35778983      0.73103370
  H      1.55352265      0.07488382     -1.10257618
  H      3.01606586      1.18987816     -0.89860008
  H     -1.43280450      2.59012268      0.78348050
  H     -0.15508743      1.25024383      0.81536605
  H     -2.95701579      1.16471912     -0.45322810
  16
Step 20
  C     -0.99349018     -1.49851463      0.16518928
  C     -1.74007093     -0.62155477     -0.51950117
  C     -1.98518056      0.77675741     -0.13699289
  C     -1.12330767      1.57154929      0.51057299
  C      2.95640143     -0.45809499      0.43463470
  C      2.42388286      0.27799683     -0.53971632
  H     -2.23833090     -0.95804216     -1.42968184
  H     -0.52652728     -1.23212004      1.11006143
  H     -0.84448805     -2.51494324     -0.18808796
  H      3.87887636     -0.17217544      0.93461751
  H      2.49210877     -1.38255796      0.77117523
  H      1.50022889     -0.01194314     -1.03425555
  H      2.88876307      1.20058449     -0.87997231
  H     -1.38717730      2.59192865      0.77470928
  H     -0.12331519      1.23825789      0.77729626
  H     -2.95136731      1.18570179     -0.43562163
  16
Step 21
  C     -1.02582843     -1.51391145      0.13565277
  C     -1.75397339     -0.61280474     -0.53794578
  C     -1.97171943      0.78524296     -0.13721872
  C     -1.09053683      1.55605973      0.51418428
  C      2.98763783     -0.41769505      0.45932905
  C      2.39190572      0.25454070     -0.52569112
  H     -2.25737630     -0.92622154     -1.45394802
  H     -0.55595418     -1.26986230      1.08518640
  H     -0.89537365     -2.52872177     -0.23067883
  H      3.91364951     -0.07289260      0.91443529
  H      2.57388145     -1.34450859      0.85280226
  H      1.46473702     -0.09214568     -0.97652357
  H      2.80463798      1.18083769     -0.92016737
  H     -1.33126577      2.57951558      0.79041926
  H     -0.09537758      1.19991529      0.77059403
  H     -2.93203795      1.21548175     -0.42600293
  16
Step 22
  C     -1.08135071     -1.54419356      0.12884762
  C     -1.77247952     -0.61496209     -0.54660977
  C     -1.96108727      0.78475514     -0.13451423
  C     -1.06996175      1.53095358      0.53337234
  C      3.00509747     -0.36501601      0.47389084
  C      2.41708150      0.25775592     -0.54737993
  H     -2.26839285     -0.90408072     -1.47506645
  H     -0.62100179     -1.32504068      1.08943469
  H     -0.97175475     -2.55848869     -0.24690111
  H      3.93261919     -0.00470091      0.91486722
  H      2.57985773     -1.26555294      0.91269276
  H      1.48768290     -0.10706226     -0.98093362
  H      2.83520077      1.15948102     -0.99131650
  H     -1.29118600      2.55742474      0.81646093
  H     -0.08451089      1.15281521      0.79737001
  H     -2.90880802      1.23874224     -0.42978777
  16
Step 23
  C     -1.08886309     -1.53324033      0.11997747
  C     -1.78552640     -0.60645029     -0.55238690
  C     -1.98031643      0.78965450     -0.13409755
  C     -1.09175388      1.53272429      0.53948457
  C      3.03742255     -0.36448637      0.47802832
  C      2.43467552      0.23716386     -0.54675095
  H     -2.28018554     -0.89498695     -1.48153767
  H     -0.62979929     -1.31474655      1.08184823
  H     -0.97452457     -2.54550120     -0.25925329
  H      3.96211971      0.01443352      0.90874281
  H      2.62867488     -1.26625224      0.92946733
  H      1.50696807     -0.14517242     -0.96778851
  H      2.83875064      1.13780367     -1.00524508
  H     -1.31567002      2.55600077      0.83046090
  H     -0.10587257      1.15380172      0.80099757
  H     -2.92909358      1.24208401     -0.42752025
  16
Step 24
  C     -1.08225026     -1.52337810      0.10349331
  C     -1.77757964     -0.59292391     -0.56465860
  C     -1.98788198      0.79580223     -0.12883157
  C     -1.11299940      1.53526511      0.56601868
  C      3.04844820     -0.35296763      0.48603090
  C      2.43751979      0.19996562     -0.56016410
  H     -2.25846492     -0.87361391     -1.50284477
  H     -0.63937647     -1.31384365      1.07402180
  H     -0.95576171     -2.52887079     -0.28818398
  H      3.98132863      0.03953013      0.88426950
  H      2.63839063     -1.22542264      0.98918206
  H      1.50271961     -0.19574913     -0.95082700
  H      2.84516265      1.07158524     -1.06769335
  H     -1.34906045      2.55142865      0.86960442
  H     -0.12732582      1.16016380      0.83148168
  H     -2.93586286      1.24585899     -0.42647198
  16
Step 25
  C     -1.06645369     -1.51518175      0.11170461
  C     -1.77537450     -0.59504393     -0.55672209
  C     -1.99478219      0.79464871     -0.12984360
  C     -1.12936974      1.54429659      0.56425829
  C      3.04109827     -0.37191550      0.47876132
  C      2.44856868      0.20541764     -0.56400237
  H     -2.26274619     -0.88762016     -1.48744553
  H     -0.61347245     -1.29657205      1.07586682
  H     -0.93720395     -2.52184674     -0.27498167
  H      3.97272848      0.00451095      0.89424306
  H      2.62006062     -1.25190798      0.95896046
  H      1.51540842     -0.17373001     -0.97192634
  H      2.87144450      1.08197669     -1.04925553
  H     -1.37612451      2.55945999      0.86155455
  H     -0.14270276      1.17922585      0.83677675
  H     -2.94407300      1.23711170     -0.43352175
  16
Step 26
  C     -1.07552935     -1.51942830      0.09792371
  C     -1.78365766     -0.59217422     -0.56140086
  C     -1.99190323      0.79756387     -0.12940968
  C     -1.12155717      1.53982239      0.56653154
  C      3.05214869     -0.35694547      0.48844573
  C      2.44271072      0.19416145     -0.55918527
  H     -2.27995368     -0.87830148     -1.48942288
  H     -0.61110721     -1.30729388      1.05797982
  H     -0.95587513     -2.52543590     -0.29365222
  H      3.98262766      0.03891650      0.88851381
  H      2.64756261     -1.23409660      0.98830880
  H      1.51055359     -0.20373358     -0.95171639
  H      2.84894648      1.06815488     -1.06315093
  H     -1.36174387      2.55628097      0.86544570
  H     -0.13799139      1.16769194      0.84074319
  H     -2.93822506      1.24764743     -0.43152707
  16
Step 27
  C     -1.07632607     -1.52387616      0.09206345
  C     -1.78690819     -0.59387975     -0.56030440
  C     -1.98616798      0.79738535     -0.12893981
  C     -1.11251262      1.53607777      0.56738593
  C      3.04698346     -0.34913329      0.49297990
  C      2.43835845      0.19464473     -0.55943472
  H     -2.29309809     -0.87851013     -1.48356324
  H     -0.59944600     -1.31328915      1.04601208
  H     -0.96531057     -2.53080001     -0.30007744
  H      3.97685406      0.05002367      0.89152897
  H      2.64172006     -1.22185119      1.00015530
  H      1.50681610     -0.20600184     -0.95184397
  H      2.84498352      1.06564020     -1.06841727
  H     -1.34725514      2.55496674      0.86264922
  H     -0.13216971      1.15875407      0.84725855
  H     -2.92951526      1.25267899     -0.43302555
  16
Step 28
  C     -1.07232164     -1.52489617      0.09068878
  C     -1.78872171     -0.59602439     -0.55707413
  C     -1.98356608      0.79702168     -0.12897689
  C     -1.10836188      1.53524475      0.56612211
  C      3.03969907     -0.34862643      0.49442426
  C      2.43684054      0.19757413     -0.56002435
  H     -2.30363809     -0.88300687     -1.47480954
  H     -0.58484078     -1.31246850      1.03890124
  H     -0.96574327     -2.53284653     -0.30016003
  H      3.96749306      0.04960397      0.89879018
  H      2.63173437     -1.22239932      0.99767998
  H      1.50734349     -0.20196998     -0.95843280
  H      2.84644856      1.06953509     -1.06506116
  H     -1.34052123      2.55565460      0.85816611
  H     -0.12953413      1.15606073      0.84904346
  H     -2.92530429      1.25437322     -0.43485021
  16
Step 29
  C     -1.06872619     -1.52456653      0.09048170
  C     -1.79006039     -0.59746764     -0.55440477
  C     -1.98321019      0.79651544     -0.12831491
  C     -1.10656533      1.53481540      0.56497800
  C      3.03374900     -0.34928486      0.49524387
  C      2.43791978      0.19974905     -0.56174183
  H     -2.31063058     -0.88678715     -1.46821864
  H     -0.57503012     -1.31003226      1.03503718
  H     -0.96394663     -2.53319770     -0.29911268
  H      3.95916304      0.04751899      0.90643556
  H      2.62215098     -1.22396717      0.99402384
  H      1.51076998     -0.19824859     -0.96712538
  H      2.85121822      1.07262993     -1.06220846
  H     -1.33711794      2.55597022      0.85566624
  H     -0.12803312      1.15480081      0.84783621
  H     -2.92464452      1.25438207     -0.43414892
  16
Step 30
  C     -1.06437061     -1.52348018      0.08864818
  C     -1.79292057     -0.59854326     -0.55133883
  C     -1.98418751      0.79611363     -0.12625794
  C     -1.10429602      1.53461371      0.56277927
  C      3.02723893     -0.34936993      0.49773962
  C      2.44011572      0.20025898     -0.56372893
  H     -2.32110746     -0.89035155     -1.45996926
  H     -0.56254923     -1.30666072      1.02846353
  H     -0.96140169     -2.53255073     -0.30027263
  H      3.94798142      0.04864009      0.91815032
  H      2.61293229     -1.22581448      0.99118105
  H      1.51762964     -0.19894751     -0.97839230
  H      2.85622242      1.07472850     -1.05910302
  H     -1.33282981      2.55616971      0.85358904
  H     -0.12490272      1.15402728      0.84184898
  H     -2.92654879      1.25399646     -0.42891007
  16
Step 31
  C     -1.05810478     -1.52118892      0.08318477
  C     -1.79980072     -0.59942843     -0.54630522
  C     -1.98822057      0.79541424     -0.12019087
  C     -1.10047828      1.53493543      0.55761684
  C      3.01777242     -0.34825891      0.50427579
  C      2.44659358      0.19809766     -0.56746051
  H     -2.34156869     -0.89432504     -1.44587788
  H     -0.54212181     -1.30146883      1.01470823
  H     -0.95806740     -2.53040500     -0.30606938
  H      3.92764204      0.05603149      0.94198556
  H      2.60084008     -1.22815256      0.98934900
  H      1.53496111     -0.20733536     -0.99961019
  H      2.86548425      1.07582624     -1.05465942
  H     -1.32585292      2.55640039      0.85109985
  H     -0.11746327      1.15472862      0.82410022
  H     -2.93460905      1.25195899     -0.41171979
  16
Step 32
  C     -1.05286172     -1.51806764      0.07302037
  C     -1.81070928     -0.59895341     -0.54090906
  C     -1.99617319      0.79466808     -0.10938628
  C     -1.09650286      1.53652443      0.54980558
  C      3.00980500     -0.34484859      0.51526169
  C      2.45793332      0.19072035     -0.57185907
  H     -2.36880169     -0.89535901     -1.42992695
  H     -0.51995621     -1.29685101      0.99465287
  H     -0.95603720     -2.52640939     -0.31924170
  H      3.90307869      0.07307078      0.97381353
  H      2.59329051     -1.22910684      0.99268439
  H      1.56308103     -0.22844054     -1.02535501
  H      2.87675600      1.07257360     -1.05154682
  H     -1.31888785      2.55668772      0.84992561
  H     -0.10653935      1.15899700      0.79326407
  H     -2.95046918      1.24762447     -0.37977622
  16
Step 33
  C     -1.05385499     -1.51608284      0.06213665
  C     -1.82153724     -0.59669518     -0.53877006
  C     -2.00546903      0.79416205     -0.09815405
  C     -1.09554250      1.53848788      0.54375790
  C      3.01032288     -0.33917976      0.52615275
  C      2.47120439      0.18003583     -0.57528110
  H     -2.38950375     -0.89066104     -1.42234339
  H     -0.51091653     -1.29688205      0.97830199
  H     -0.95878704     -2.52247194     -0.33552954
  H      3.88960438      0.09449084      0.99694874
  H      2.59726015     -1.22509239      1.00350319
  H      1.59069380     -0.25498442     -1.04174665
  H      2.88689122      1.06352079     -1.05459794
  H     -1.31685201      2.55632088      0.85250078
  H     -0.09845194      1.16518761      0.76348272
  H     -2.96805580      1.24267374     -0.34593500
  16
Step 34
  C     -1.05914349     -1.51666969      0.05499004
  C     -1.82826807     -0.59453973     -0.53957832
  C     -2.01127926      0.79388153     -0.09149371
  C     -1.09655196      1.53974399      0.54166828
  C      3.01642146     -0.33356526      0.53268116
  C      2.48056975      0.17202412     -0.57673296
  H     -2.39861375     -0.88406836     -1.42313241
  H     -0.51376697     -1.30168954      0.97061699
  H     -0.96530248     -2.52126114     -0.34756323
  H      3.89005622      0.11016703      1.00465427
  H      2.60632338     -1.21781482      1.01549669
  H      1.60572543     -0.27293065     -1.04464121
  H      2.89336213      1.05399894     -1.06127257
  H     -1.31867472      2.55563839      0.85629855
  H     -0.09518301      1.17024296      0.74817834
  H     -2.97866867      1.23967224     -0.32574293
  16
Step 35
  C     -1.06001665     -1.51714564      0.05288674
  C     -1.82955412     -0.59408623     -0.53968755
  C     -2.01260392      0.79370866     -0.08977969
  C     -1.09740592      1.54095108      0.54110413
  C      3.01841440     -0.33274049      0.53420511
  C      2.48267950      0.16990394     -0.57660955
  H     -2.40063347     -0.88235561     -1.42321617
  H     -0.51365172     -1.30383154      0.96828855
  H     -0.96688964     -2.52122005     -0.35117707
  H      3.89171154      0.11254122      1.00536203
  H      2.60849064     -1.21591676      1.01902222
  H      1.60806045     -0.27640639     -1.04373753
  H      2.89526366      1.05096138     -1.06301386
  H     -1.32088987      2.55628492      0.85667305
  H     -0.09454533      1.17390089      0.74481476
  H     -2.98142355      1.23828062     -0.32070817

======= END OF MOLDEN-FORMATTED INPUT FILE =======


        *************************************************************
        *                                                           *
        *  Thank you very much for using Q-Chem.  Have a nice day.  *
        *                                                           *
        *************************************************************


0 sent ACK to 0 
now end server 0 ... 
