Process 0 of 1 is on gollum408.lsa.umich.edu - thread support 0
initial socket setup ...start
initial socket setup ...done 
now start server 0 ... 
 Q-Chem 4.3.0 for Intel X86 EM64T Linux

 Parts of Q-Chem use Armadillo 5.200.1 (Boston Tea Smuggler).
 http://arma.sourceforge.net/

 Q-Chem begins on Thu Nov 17 14:35:19 2016  

Host: gollum408.lsa.umich.edu
0

     Scratch files written to /tmp/77279462.satyr/qchem12800//
 Parallel job on  1  processors

Checking the input file for inconsistencies...  ...done.

--------------------------------------------------------------
User input:
--------------------------------------------------------------
 $rem
 JOBTYPE OPT
 EXCHANGE B3LYP
! CORRELATION PBE
! UNRESTRICTED TRUE
 SCF_ALGORITHM rca_diis
 SCF_MAX_CYCLES 150
! BASIS LANL2DZ
! ECP LANL2DZ
 BASIS 6-31G*
 WAVEFUNCTION_ANALYSIS FALSE
 GEOM_OPT_MAX_CYCLES 300

scf_convergence 6

 SYM_IGNORE TRUE
 SYMMETRY   FALSE

molden_format true
 $end


$molecule
0 1
  C -0.055074 -1.424969 0.379886
  C -1.219569 -0.723523 -0.272991
  C -1.280757 0.610521 -0.336412
  C -0.121075 1.444865 0.152554
  C 1.311169 -0.685702 0.224614
  C 1.197474 0.772102 -0.273551
  H -2.039097 -1.334283 -0.648784
  H -0.276628 -1.520162 1.451456
  H 0.025745 -2.451913 0.011092
  H 1.830654 -0.705537 1.189197
  H 1.945311 -1.242478 -0.473524
  H 1.228708 0.785455 -1.369785
  H 2.060455 1.353185 0.074529
  H -0.174779 2.463364 -0.249464
  H -0.154258 1.543788 1.249963
  H -2.134925 1.106333 -0.788776
$end
--------------------------------------------------------------
 ----------------------------------------------------------------
             Standard Nuclear Orientation (Angstroms)
    I     Atom           X                Y                Z
 ----------------------------------------------------------------
    1      C      -0.0550740000    -1.4249690000     0.3798860000
    2      C      -1.2195690000    -0.7235230000    -0.2729910000
    3      C      -1.2807570000     0.6105210000    -0.3364120000
    4      C      -0.1210750000     1.4448650000     0.1525540000
    5      C       1.3111690000    -0.6857020000     0.2246140000
    6      C       1.1974740000     0.7721020000    -0.2735510000
    7      H      -2.0390970000    -1.3342830000    -0.6487840000
    8      H      -0.2766280000    -1.5201620000     1.4514560000
    9      H       0.0257450000    -2.4519130000     0.0110920000
   10      H       1.8306540000    -0.7055370000     1.1891970000
   11      H       1.9453110000    -1.2424780000    -0.4735240000
   12      H       1.2287080000     0.7854550000    -1.3697850000
   13      H       2.0604550000     1.3531850000     0.0745290000
   14      H      -0.1747790000     2.4633640000    -0.2494640000
   15      H      -0.1542580000     1.5437880000     1.2499630000
   16      H      -2.1349250000     1.1063330000    -0.7887760000
 ----------------------------------------------------------------
 Nuclear Repulsion Energy =   235.7800274672 hartrees
 There are       23 alpha and       23 beta electrons
 Requested basis set is 6-31G(d)
 There are 44 shells and 110 basis functions

 Total QAlloc Memory Limit   2000 MB
 Mega-Array Size        61 MB
 MEM_STATIC part        62 MB
 in ParallelAOLoop for JobNumber:  2 JobType:  2 
 A cutoff of  1.0D-10 yielded    957 shell pairs
 There are      6234 function pairs
 in ParallelAOLoop for JobNumber: 11 JobType: 11 
 DoParallel is ON (aoloop_n) 
 
 -------------------------------------------------------
 OpenMP Integral Computing Module                       
 Release: version 1.0, May 2013, Q-Chem Inc. Pittsburgh 
 -------------------------------------------------------
 Integral Job Info:
 Integral job number is                      11
 Integral operator is                         1
 short-range coefficients                     0
 long-range coefficients              100000000
 Omega coefficients                           0
 if combine SR and LR in K                    0
 Integral screening is                        0
 Integral computing path is                   2
 max size of driver memory is            800000
 size of driver memory is                593474
 size of scratch memory is              2260544
 max col of scratch BK array               1296
 max len of scratch array in speh3          155
 max len of scratch index in speh4           18
 max int batch size is                      520
 min int batch size is                       52
 fixed nKL is                                52
 max L of basis functions is                  2
 order of int derivative is                   0
 number of shells is                         44
 number of basis is                         110
 number of cartesian basis is               110
 number of contracted shell pairs           957
 number of primitive shell pairs           3627
 maxK2 (contraction) of shell pair           36
 max number of K2 of shell pair               1
 max number of CS2 of shell pair            132
 max number of PS2 of shell pair            528
 mem total for path MDJ                   28696
 -------------------------------------------------------
 Smallest overlap matrix eigenvalue = 2.22E-03

 Scale SEOQF with 1.000000e-01/1.000000e-01/1.000000e+00

 Standard Electronic Orientation quadrupole field applied
 Nucleus-field energy     =    -0.0000000055 hartrees
 length of FILE_MO_COEFS: 0 
 Guess from superposition of atomic densities
 Warning:  Energy on first SCF cycle will be non-variational
 A restricted hybrid HF-DFT SCF calculation will be
 performed using Relaxed Constraint Minimization + Pulay DIIS
 Exchange:     0.2000 Hartree-Fock + 0.0800 Slater + 0.7200 B88
 Correlation:  0.1900 VWN1RPA + 0.8100 LYP
 Using SG-1 standard quadrature grid
 SCF converges when DIIS error is below 1.0E-06
 in ParallelAOLoop for JobNumber: 22 JobType: 22 
 ---------------------------------------
  Cycle       Energy         DIIS Error
 ---------------------------------------
    1    -235.6802108043      7.30E-02
 in ParallelAOLoop for JobNumber: 22 JobType: 22 
    2    -234.5146227741      8.57E-03
 in ParallelAOLoop for JobNumber: 22 JobType: 22 
    3    -234.5700816762      1.60E-03
 in ParallelAOLoop for JobNumber: 22 JobType: 22 
    4    -234.6388978527      7.51E-04 Done RCA. Switching to DIIS
 in ParallelAOLoop for JobNumber: 22 JobType: 22 
    5    -234.6392960010      5.36E-04
 in ParallelAOLoop for JobNumber: 22 JobType: 22 
    6    -234.6397394608      1.21E-04
 in ParallelAOLoop for JobNumber: 22 JobType: 22 
    7    -234.6397611236      3.20E-05
 in ParallelAOLoop for JobNumber: 22 JobType: 22 
    8    -234.6397627291      3.15E-06
 in ParallelAOLoop for JobNumber: 22 JobType: 22 
    9    -234.6397627395      3.98E-07 Convergence criterion met
 ---------------------------------------
 SCF time:  CPU 26.63 s  wall 26.52 s
 SCF   energy in the final basis set = -234.6397627395
 Total energy in the final basis set = -234.6397627395
 No wavefunction analysis requested
 Calculating analytic gradient of the SCF energy
 in ParallelAOLoop for JobNumber: 111 JobType: 11 
 DoParallel is ON (aoloop_n) 
 in ParallelAOLoop for JobNumber: 122 JobType: 22 
 Gradient of SCF Energy
            1           2           3           4           5           6
    1  -0.0007392   0.0007265  -0.0019304   0.0003931   0.0009212   0.0000227
    2  -0.0011019  -0.0011995   0.0010657   0.0001514  -0.0005668   0.0004721
    3   0.0005242  -0.0002958   0.0005438   0.0000000   0.0004391  -0.0000058
            7           8           9          10          11          12
    1  -0.0000031   0.0005761  -0.0002654  -0.0000889  -0.0007757  -0.0003123
    2   0.0000269   0.0007926   0.0012129  -0.0001253   0.0003653   0.0000711
    3  -0.0001135  -0.0013716   0.0008198  -0.0004933  -0.0001682   0.0001485
           13          14          15          16
    1   0.0000537   0.0000665  -0.0002459   0.0016009
    2  -0.0000012  -0.0001536  -0.0002909  -0.0007190
    3  -0.0000395  -0.0000558   0.0003281  -0.0002601
 Max gradient component =       1.930E-03
 RMS gradient           =       6.562E-04
 Gradient time:  CPU 8.02 s  wall 8.04 s
 Geometry Optimization Parameters
   NAtoms,    NIC,     NZ,  NCons,   NDum,   NFix, NCnnct, MaxDiis
       16     121       0       0       0       0       0       0


** GEOMETRY OPTIMIZATION IN DELOCALIZED INTERNAL COORDINATES **
   Searching for a Minimum

   Optimization Cycle:   1

                       Coordinates (Angstroms)
     ATOM                X               Y               Z
      1  C        -0.0550740000   -1.4249690000    0.3798860000
      2  C        -1.2195690000   -0.7235230000   -0.2729910000
      3  C        -1.2807570000    0.6105210000   -0.3364120000
      4  C        -0.1210750000    1.4448650000    0.1525540000
      5  C         1.3111690000   -0.6857020000    0.2246140000
      6  C         1.1974740000    0.7721020000   -0.2735510000
      7  H        -2.0390970000   -1.3342830000   -0.6487840000
      8  H        -0.2766280000   -1.5201620000    1.4514560000
      9  H         0.0257450000   -2.4519130000    0.0110920000
     10  H         1.8306540000   -0.7055370000    1.1891970000
     11  H         1.9453110000   -1.2424780000   -0.4735240000
     12  H         1.2287080000    0.7854550000   -1.3697850000
     13  H         2.0604550000    1.3531850000    0.0745290000
     14  H        -0.1747790000    2.4633640000   -0.2494640000
     15  H        -0.1542580000    1.5437880000    1.2499630000
     16  H        -2.1349250000    1.1063330000   -0.7887760000
   Point Group: c1    Number of degrees of freedom:    42


   Energy is   -234.639762739


 Attempting to Generate Delocalized Internal Coordinates

 42 Hessian modes will be used to form the next step
  Hessian Eigenvalues:
     0.003439    0.007744    0.013645    0.014313    0.019157    0.028612
     0.030366    0.036425    0.045402    0.048056    0.052178    0.056560
     0.060270    0.077416    0.083506    0.086035    0.089194    0.096827
     0.099547    0.117958    0.124937    0.159614    0.159820    0.194087
     0.202825    0.219296    0.259876    0.270576    0.277556    0.300078
     0.310847    0.334227    0.338633    0.340087    0.340430    0.340962
     0.341560    0.342150    0.343379    0.349309    0.352428    0.553904

 Minimum Search - Taking Simple RFO Step
 Searching for Lamda that Minimizes Along All modes
 Value Taken    Lamda =  -0.00029151
 Step Taken.  Stepsize is  0.227865

                             Maximum     Tolerance    Cnvgd?
         Gradient           0.001537      0.000300      NO
         Displacement       0.114750      0.001200      NO
         Energy change     *********      0.000001      NO


 New Cartesian Coordinates Obtained by Inverse Iteration

 Displacement from previous Coordinates is:  0.235801
 ----------------------------------------------------------------
             Standard Nuclear Orientation (Angstroms)
    I     Atom           X                Y                Z
 ----------------------------------------------------------------
    1      C      -0.0525435762    -1.4335940001     0.3647727861
    2      C      -1.2240145208    -0.7198913844    -0.2656874886
    3      C      -1.2836483912     0.6141855134    -0.3257711693
    4      C      -0.1170395822     1.4506030900     0.1417062685
    5      C       1.3098812233    -0.6814010372     0.2385148991
    6      C       1.1981658753     0.7685393470    -0.2806886527
    7      H      -2.0508057142    -1.3263424284    -0.6323258837
    8      H      -0.2772013500    -1.5704632058     1.4336093991
    9      H       0.0371272598    -2.4484406205    -0.0402645463
   10      H       1.8009151854    -0.6830159027     1.2189014693
   11      H       1.9729258660    -1.2412554096    -0.4310124859
   12      H       1.2327234687     0.7676643292    -1.3771480997
   13      H       2.0614376983     1.3524361310     0.0617698420
   14      H      -0.1716789062     2.4645416457    -0.2720553712
   15      H      -0.1398739130     1.5655922849     1.2373335777
   16      H      -2.1530166229     1.1118876474    -0.7516505444
 ----------------------------------------------------------------
 Nuclear Repulsion Energy =   235.5945191944 hartrees
 There are       23 alpha and       23 beta electrons
 Applying Cartesian multipole field
    Component          Value
    ---------          -----
     (2,0,0)        1.00000E-11
     (0,2,0)        2.00000E-11
     (0,0,2)       -3.00000E-10
 Nucleus-field energy     =    -0.0000000053 hartrees
 length of FILE_MO_COEFS: 24420 
 Requested basis set is 6-31G(d)
 There are 44 shells and 110 basis functions
 in ParallelAOLoop for JobNumber:  2 JobType:  2 
 A cutoff of  1.0D-10 yielded    959 shell pairs
 There are      6236 function pairs
 in ParallelAOLoop for JobNumber: 11 JobType: 11 
 DoParallel is ON (aoloop_n) 
 Smallest overlap matrix eigenvalue = 2.24E-03
 Guess MOs from SCF MO coefficient file
 Reading MOs from coefficient file
 Reading MOs from coefficient file
 A restricted hybrid HF-DFT SCF calculation will be
 performed using Relaxed Constraint Minimization + Pulay DIIS
 Exchange:     0.2000 Hartree-Fock + 0.0800 Slater + 0.7200 B88
 Correlation:  0.1900 VWN1RPA + 0.8100 LYP
 Using SG-1 standard quadrature grid
 SCF converges when DIIS error is below 1.0E-06
 Geometry optimization detected.  Setting ReadMinima to 0
 Setting SaveMinima to 0
 in ParallelAOLoop for JobNumber: 22 JobType: 22 
 Inaccurate integrated density:
   Number of electrons =    46
   Numerical integral  =    45.993858547083
   Relative error      =    -0.0133509846 %
 Inaccurate integrated density:
   Number of electrons =    46
   Numerical integral  =    45.993858547083
   Relative error      =    -0.0133509846 %
 ---------------------------------------
  Cycle       Energy         DIIS Error
 ---------------------------------------
    1    -234.6360785099      6.64E-04 Done RCA. Switching to DIIS
 in ParallelAOLoop for JobNumber: 22 JobType: 22 
    2    -234.6400350710      5.99E-05
 in ParallelAOLoop for JobNumber: 22 JobType: 22 
    3    -234.6400445632      3.95E-05
 in ParallelAOLoop for JobNumber: 22 JobType: 22 
    4    -234.6400459852      2.80E-05
 in ParallelAOLoop for JobNumber: 22 JobType: 22 
    5    -234.6400471430      8.78E-06
 in ParallelAOLoop for JobNumber: 22 JobType: 22 
    6    -234.6400472570      1.88E-06
 in ParallelAOLoop for JobNumber: 22 JobType: 22 
    7    -234.6400472639      2.51E-07 Convergence criterion met
 ---------------------------------------
 SCF time:  CPU 19.18 s  wall 19.08 s
 SCF   energy in the final basis set = -234.6400472639
 Total energy in the final basis set = -234.6400472639
 No wavefunction analysis requested
 Calculating analytic gradient of the SCF energy
 in ParallelAOLoop for JobNumber: 111 JobType: 11 
 DoParallel is ON (aoloop_n) 
 in ParallelAOLoop for JobNumber: 122 JobType: 22 
 Gradient of SCF Energy
            1           2           3           4           5           6
    1  -0.0002126  -0.0001849  -0.0006149  -0.0000615   0.0004498   0.0000857
    2  -0.0000382  -0.0006920   0.0003156   0.0003875  -0.0004902   0.0002709
    3   0.0004196  -0.0003078   0.0004704   0.0000574  -0.0002216  -0.0001150
            7           8           9          10          11          12
    1   0.0001866   0.0002499   0.0001802   0.0000965  -0.0002762   0.0001117
    2   0.0001274   0.0006405  -0.0000345  -0.0004565   0.0000755   0.0000702
    3  -0.0004972   0.0001861   0.0005206  -0.0001672  -0.0003315   0.0000631
           13          14          15          16
    1  -0.0001640  -0.0000472   0.0000113   0.0001897
    2   0.0000929   0.0000145  -0.0002829  -0.0000007
    3   0.0000892   0.0002074  -0.0000159  -0.0003577
 Max gradient component =       6.920E-04
 RMS gradient           =       2.949E-04
 Gradient time:  CPU 8.05 s  wall 8.05 s
 Geometry Optimization Parameters
   NAtoms,    NIC,     NZ,  NCons,   NDum,   NFix, NCnnct, MaxDiis
       16     121       0       0       0       0       0       0

 Cartesian Hessian Update
 Hessian Updated using BFGS Update


** GEOMETRY OPTIMIZATION IN DELOCALIZED INTERNAL COORDINATES **
   Searching for a Minimum

   Optimization Cycle:   2

                       Coordinates (Angstroms)
     ATOM                X               Y               Z
      1  C        -0.0525435762   -1.4335940001    0.3647727861
      2  C        -1.2240145208   -0.7198913844   -0.2656874886
      3  C        -1.2836483912    0.6141855134   -0.3257711693
      4  C        -0.1170395822    1.4506030900    0.1417062685
      5  C         1.3098812233   -0.6814010372    0.2385148991
      6  C         1.1981658753    0.7685393470   -0.2806886527
      7  H        -2.0508057142   -1.3263424284   -0.6323258837
      8  H        -0.2772013500   -1.5704632058    1.4336093991
      9  H         0.0371272598   -2.4484406205   -0.0402645463
     10  H         1.8009151854   -0.6830159027    1.2189014693
     11  H         1.9729258660   -1.2412554096   -0.4310124859
     12  H         1.2327234687    0.7676643292   -1.3771480997
     13  H         2.0614376983    1.3524361310    0.0617698420
     14  H        -0.1716789062    2.4645416457   -0.2720553712
     15  H        -0.1398739130    1.5655922849    1.2373335777
     16  H        -2.1530166229    1.1118876474   -0.7516505444
   Point Group: c1    Number of degrees of freedom:    42


   Energy is   -234.640047264

 Hessian Updated using BFGS Update

 42 Hessian modes will be used to form the next step
  Hessian Eigenvalues:
     0.000050    0.006849    0.013639    0.013989    0.021055    0.028525
     0.035824    0.036353    0.047060    0.049450    0.052182    0.056891
     0.061212    0.078770    0.083545    0.086715    0.089239    0.096578
     0.101320    0.123501    0.130872    0.159601    0.160004    0.194081
     0.203860    0.219159    0.259814    0.271087    0.277988    0.301684
     0.314298    0.334354    0.340073    0.340367    0.340714    0.340981
     0.341701    0.342395    0.348941    0.349358    0.553240    0.924854
**WARNING** Magnitude of eigenvalue   1 too small.  Replaced by     0.000100

 Minimum Search - Taking Simple RFO Step
 Searching for Lamda that Minimizes Along All modes
 Value Taken    Lamda =  -0.00117989
 Calculated Step too Large.  Step scaled by  0.315477
 Step Taken.  Stepsize is  0.300000

                             Maximum     Tolerance    Cnvgd?
         Gradient           0.000718      0.000300      NO
         Displacement       0.151146      0.001200      NO
         Energy change     -0.000285      0.000001      NO


 New Cartesian Coordinates Obtained by Inverse Iteration

 Displacement from previous Coordinates is:  0.311456
 ----------------------------------------------------------------
             Standard Nuclear Orientation (Angstroms)
    I     Atom           X                Y                Z
 ----------------------------------------------------------------
    1      C      -0.0489216710    -1.4444984467     0.3440977390
    2      C      -1.2291091043    -0.7156139308    -0.2554228714
    3      C      -1.2866817446     0.6184287086    -0.3112930618
    4      C      -0.1115808163     1.4576468418     0.1275585405
    5      C       1.3073890975    -0.6753004603     0.2574855469
    6      C       1.1992488220     0.7636599578    -0.2887600812
    7      H      -2.0659870847    -1.3169495400    -0.6072945402
    8      H      -0.2779290198    -1.6368728807     1.4059785777
    9      H       0.0515902177    -2.4407566639    -0.1084653747
   10      H       1.7613823380    -0.6537317449     1.2562748408
   11      H       2.0059464961    -1.2373150960    -0.3745048690
   12      H       1.2376241904     0.7435658458    -1.3852153454
   13      H       2.0633862727     1.3508715192     0.0457366807
   14      H      -0.1674370851     2.4645572813    -0.3034975808
   15      H      -0.1217105260     1.5953882286     1.2202864232
   16      H      -2.1738563825     1.1179663802    -0.7029606243
 ----------------------------------------------------------------
 Nuclear Repulsion Energy =   235.4076019163 hartrees
 There are       23 alpha and       23 beta electrons
 Applying Cartesian multipole field
    Component          Value
    ---------          -----
     (2,0,0)        1.00000E-11
     (0,2,0)        2.00000E-11
     (0,0,2)       -3.00000E-10
 Nucleus-field energy     =    -0.0000000050 hartrees
 length of FILE_MO_COEFS: 24420 
 Requested basis set is 6-31G(d)
 There are 44 shells and 110 basis functions
 in ParallelAOLoop for JobNumber:  2 JobType:  2 
 A cutoff of  1.0D-10 yielded    960 shell pairs
 There are      6237 function pairs
 in ParallelAOLoop for JobNumber: 11 JobType: 11 
 DoParallel is ON (aoloop_n) 
 Smallest overlap matrix eigenvalue = 2.25E-03
 Guess MOs from SCF MO coefficient file
 Reading MOs from coefficient file
 Reading MOs from coefficient file
 A restricted hybrid HF-DFT SCF calculation will be
 performed using Relaxed Constraint Minimization + Pulay DIIS
 Exchange:     0.2000 Hartree-Fock + 0.0800 Slater + 0.7200 B88
 Correlation:  0.1900 VWN1RPA + 0.8100 LYP
 Using SG-1 standard quadrature grid
 SCF converges when DIIS error is below 1.0E-06
 Geometry optimization detected.  Setting ReadMinima to 0
 Setting SaveMinima to 0
 in ParallelAOLoop for JobNumber: 22 JobType: 22 
 Inaccurate integrated density:
   Number of electrons =    46
   Numerical integral  =    45.991818979551
   Relative error      =    -0.0177848271 %
 Inaccurate integrated density:
   Number of electrons =    46
   Numerical integral  =    45.991818979551
   Relative error      =    -0.0177848271 %
 ---------------------------------------
  Cycle       Energy         DIIS Error
 ---------------------------------------
    1    -234.6354340264      8.79E-04 Done RCA. Switching to DIIS
 in ParallelAOLoop for JobNumber: 22 JobType: 22 
    2    -234.6404063330      7.69E-05
 in ParallelAOLoop for JobNumber: 22 JobType: 22 
    3    -234.6404234173      4.55E-05
 in ParallelAOLoop for JobNumber: 22 JobType: 22 
    4    -234.6404251544      3.38E-05
 in ParallelAOLoop for JobNumber: 22 JobType: 22 
    5    -234.6404268247      1.11E-05
 in ParallelAOLoop for JobNumber: 22 JobType: 22 
    6    -234.6404270059      2.47E-06
 in ParallelAOLoop for JobNumber: 22 JobType: 22 
    7    -234.6404270178      2.99E-07 Convergence criterion met
 ---------------------------------------
 SCF time:  CPU 18.38 s  wall 18.32 s
 SCF   energy in the final basis set = -234.6404270178
 Total energy in the final basis set = -234.6404270178
 No wavefunction analysis requested
 Calculating analytic gradient of the SCF energy
 in ParallelAOLoop for JobNumber: 111 JobType: 11 
 DoParallel is ON (aoloop_n) 
 in ParallelAOLoop for JobNumber: 122 JobType: 22 
 Gradient of SCF Energy
            1           2           3           4           5           6
    1   0.0002796  -0.0011001   0.0008767  -0.0005701  -0.0000862   0.0001655
    2   0.0011296  -0.0000765  -0.0005501   0.0005008  -0.0001020  -0.0000260
    3   0.0002954  -0.0003070   0.0002683   0.0001198  -0.0008928  -0.0001477
            7           8           9          10          11          12
    1   0.0003727  -0.0002363   0.0005581   0.0004431   0.0002405   0.0005765
    2   0.0002035   0.0003037  -0.0013585  -0.0007964  -0.0001213   0.0000350
    3  -0.0008740   0.0017232   0.0002125   0.0001593  -0.0005225  -0.0000302
           13          14          15          16
    1  -0.0003739  -0.0001554   0.0003153  -0.0013059
    2   0.0002104   0.0002008  -0.0002677   0.0007147
    3   0.0002221   0.0004803  -0.0003763  -0.0003305
 Max gradient component =       1.723E-03
 RMS gradient           =       5.830E-04
 Gradient time:  CPU 7.89 s  wall 7.89 s
 Geometry Optimization Parameters
   NAtoms,    NIC,     NZ,  NCons,   NDum,   NFix, NCnnct, MaxDiis
       16     121       0       0       0       0       0       0

 Cartesian Hessian Update
 Hessian Updated using BFGS Update
**WARNING** Hereditary positive definiteness endangered


** GEOMETRY OPTIMIZATION IN DELOCALIZED INTERNAL COORDINATES **
   Searching for a Minimum

   Optimization Cycle:   3

                       Coordinates (Angstroms)
     ATOM                X               Y               Z
      1  C        -0.0489216710   -1.4444984467    0.3440977390
      2  C        -1.2291091043   -0.7156139308   -0.2554228714
      3  C        -1.2866817446    0.6184287086   -0.3112930618
      4  C        -0.1115808163    1.4576468418    0.1275585405
      5  C         1.3073890975   -0.6753004603    0.2574855469
      6  C         1.1992488220    0.7636599578   -0.2887600812
      7  H        -2.0659870847   -1.3169495400   -0.6072945402
      8  H        -0.2779290198   -1.6368728807    1.4059785777
      9  H         0.0515902177   -2.4407566639   -0.1084653747
     10  H         1.7613823380   -0.6537317449    1.2562748408
     11  H         2.0059464961   -1.2373150960   -0.3745048690
     12  H         1.2376241904    0.7435658458   -1.3852153454
     13  H         2.0633862727    1.3508715192    0.0457366807
     14  H        -0.1674370851    2.4645572813   -0.3034975808
     15  H        -0.1217105260    1.5953882286    1.2202864232
     16  H        -2.1738563825    1.1179663802   -0.7029606243
   Point Group: c1    Number of degrees of freedom:    42


   Energy is   -234.640427018

 Hessian Updated using BFGS Update
**WARNING** Hereditary positive definiteness endangered

 42 Hessian modes will be used to form the next step
  Hessian Eigenvalues:
    -0.006378    0.001545    0.008943    0.013611    0.017560    0.026737
     0.031466    0.035189    0.041653    0.047208    0.052160    0.054685
     0.058801    0.072070    0.081150    0.085701    0.088600    0.091482
     0.100006    0.115575    0.125008    0.159084    0.159564    0.190561
     0.203412    0.218562    0.235133    0.267337    0.274532    0.301508
     0.308856    0.334279    0.338964    0.340151    0.340564    0.340898
     0.341057    0.342319    0.348733    0.349331    0.366176    0.552848
**WARNING** Hessian does not have the Desired Local Structure

 Minimum Search - Taking Simple RFO Step
 Searching for Lamda that Minimizes Along All modes
 Value Taken    Lamda =  -0.00670038
 Calculated Step too Large.  Step scaled by  0.066613
 Step Taken.  Stepsize is  0.300000

                             Maximum     Tolerance    Cnvgd?
         Gradient           0.001562      0.000300      NO
         Displacement       0.186600      0.001200      NO
         Energy change     -0.000380      0.000001      NO


 New Cartesian Coordinates Obtained by Inverse Iteration

 Displacement from previous Coordinates is:  0.248036
 ----------------------------------------------------------------
             Standard Nuclear Orientation (Angstroms)
    I     Atom           X                Y                Z
 ----------------------------------------------------------------
    1      C      -0.0419801628    -1.4464315447     0.3345556633
    2      C      -1.2252332488    -0.7127327943    -0.2431404851
    3      C      -1.2893175081     0.6247746516    -0.2886053520
    4      C      -0.1089195920     1.4631271515     0.1403393856
    5      C       1.3057661396    -0.6816970442     0.2668291369
    6      C       1.1895704252     0.7578942701    -0.2927918528
    7      H      -2.0631606562    -1.3103682248    -0.5999498069
    8      H      -0.2380815801    -1.6572767370     1.3870357633
    9      H       0.0639328726    -2.4145537473    -0.1501631434
   10      H       1.7155729253    -0.6379344693     1.2790843996
   11      H       2.0131139481    -1.2580095397    -0.3356734279
   12      H       1.1865892618     0.7330319454    -1.3885359297
   13      H       2.0675612903     1.3411202521     0.0107758151
   14      H      -0.1596533676     2.4609112603    -0.3103343634
   15      H      -0.1283907467     1.6097502025     1.2345814986
   16      H      -2.1440160006     1.1194403678    -0.7240033011
 ----------------------------------------------------------------
 Nuclear Repulsion Energy =   235.7946711103 hartrees
 There are       23 alpha and       23 beta electrons
 Applying Cartesian multipole field
    Component          Value
    ---------          -----
     (2,0,0)        1.00000E-11
     (0,2,0)        2.00000E-11
     (0,0,2)       -3.00000E-10
 Nucleus-field energy     =    -0.0000000050 hartrees
 length of FILE_MO_COEFS: 24420 
 Requested basis set is 6-31G(d)
 There are 44 shells and 110 basis functions
 in ParallelAOLoop for JobNumber:  2 JobType:  2 
 A cutoff of  1.0D-10 yielded    961 shell pairs
 There are      6238 function pairs
 in ParallelAOLoop for JobNumber: 11 JobType: 11 
 DoParallel is ON (aoloop_n) 
 Smallest overlap matrix eigenvalue = 2.23E-03
 Guess MOs from SCF MO coefficient file
 Reading MOs from coefficient file
 Reading MOs from coefficient file
 A restricted hybrid HF-DFT SCF calculation will be
 performed using Relaxed Constraint Minimization + Pulay DIIS
 Exchange:     0.2000 Hartree-Fock + 0.0800 Slater + 0.7200 B88
 Correlation:  0.1900 VWN1RPA + 0.8100 LYP
 Using SG-1 standard quadrature grid
 SCF converges when DIIS error is below 1.0E-06
 Geometry optimization detected.  Setting ReadMinima to 0
 Setting SaveMinima to 0
 in ParallelAOLoop for JobNumber: 22 JobType: 22 
 Inaccurate integrated density:
   Number of electrons =    46
   Numerical integral  =    46.009596866081
   Relative error      =     0.0208627524 %
 Inaccurate integrated density:
   Number of electrons =    46
   Numerical integral  =    46.009596866081
   Relative error      =     0.0208627524 %
 ---------------------------------------
  Cycle       Energy         DIIS Error
 ---------------------------------------
    1    -234.6492741812      8.93E-04 Done RCA. Switching to DIIS
 in ParallelAOLoop for JobNumber: 22 JobType: 22 
    2    -234.6398867070      1.35E-04
 in ParallelAOLoop for JobNumber: 22 JobType: 22 
    3    -234.6398853085      1.53E-04
 in ParallelAOLoop for JobNumber: 22 JobType: 22 
    4    -234.6399207108      3.57E-05
 in ParallelAOLoop for JobNumber: 22 JobType: 22 
    5    -234.6399222212      1.84E-05
 in ParallelAOLoop for JobNumber: 22 JobType: 22 
    6    -234.6399227462      2.45E-06
 in ParallelAOLoop for JobNumber: 22 JobType: 22 
    7    -234.6399227554      7.67E-07 Convergence criterion met
 ---------------------------------------
 SCF time:  CPU 19.22 s  wall 19.13 s
 SCF   energy in the final basis set = -234.6399227554
 Total energy in the final basis set = -234.6399227554
 No wavefunction analysis requested
 Calculating analytic gradient of the SCF energy
 in ParallelAOLoop for JobNumber: 111 JobType: 11 
 DoParallel is ON (aoloop_n) 
 in ParallelAOLoop for JobNumber: 122 JobType: 22 
 Gradient of SCF Energy
            1           2           3           4           5           6
    1   0.0007386   0.0018579  -0.0073813   0.0010599   0.0023644  -0.0019264
    2  -0.0030833  -0.0047867   0.0064411   0.0020159  -0.0080473   0.0028903
    3   0.0024965  -0.0005441   0.0012456  -0.0013953   0.0012302  -0.0017114
            7           8           9          10          11          12
    1  -0.0000595   0.0041471   0.0011585  -0.0030873  -0.0026071  -0.0010251
    2   0.0003166   0.0036608   0.0057956  -0.0010627  -0.0012102   0.0009825
    3  -0.0005387  -0.0043837   0.0020256  -0.0013237   0.0005975   0.0008046
           13          14          15          16
    1  -0.0003053   0.0002479  -0.0016868   0.0065043
    2  -0.0001102  -0.0006445  -0.0006127  -0.0025452
    3   0.0001683  -0.0006380   0.0016457   0.0003208
 Max gradient component =       8.047E-03
 RMS gradient           =       2.898E-03
 Gradient time:  CPU 8.10 s  wall 8.13 s
 Geometry Optimization Parameters
   NAtoms,    NIC,     NZ,  NCons,   NDum,   NFix, NCnnct, MaxDiis
       16     121       0       0       0       0       0       0

 Cartesian Hessian Update
 Hessian Updated using BFGS Update


** GEOMETRY OPTIMIZATION IN DELOCALIZED INTERNAL COORDINATES **
   Searching for a Minimum

   Optimization Cycle:   4

                       Coordinates (Angstroms)
     ATOM                X               Y               Z
      1  C        -0.0419801628   -1.4464315447    0.3345556633
      2  C        -1.2252332488   -0.7127327943   -0.2431404851
      3  C        -1.2893175081    0.6247746516   -0.2886053520
      4  C        -0.1089195920    1.4631271515    0.1403393856
      5  C         1.3057661396   -0.6816970442    0.2668291369
      6  C         1.1895704252    0.7578942701   -0.2927918528
      7  H        -2.0631606562   -1.3103682248   -0.5999498069
      8  H        -0.2380815801   -1.6572767370    1.3870357633
      9  H         0.0639328726   -2.4145537473   -0.1501631434
     10  H         1.7155729253   -0.6379344693    1.2790843996
     11  H         2.0131139481   -1.2580095397   -0.3356734279
     12  H         1.1865892618    0.7330319454   -1.3885359297
     13  H         2.0675612903    1.3411202521    0.0107758151
     14  H        -0.1596533676    2.4609112603   -0.3103343634
     15  H        -0.1283907467    1.6097502025    1.2345814986
     16  H        -2.1440160006    1.1194403678   -0.7240033011
   Point Group: c1    Number of degrees of freedom:    42


   Energy is   -234.639922755

 Hessian Updated using BFGS Update

 42 Hessian modes will be used to form the next step
  Hessian Eigenvalues:
     0.001046    0.006401    0.013522    0.014366    0.019053    0.028626
     0.032120    0.036396    0.045079    0.048038    0.052163    0.055968
     0.060220    0.077249    0.083510    0.088437    0.089522    0.097606
     0.110252    0.116629    0.125102    0.159150    0.160091    0.196473
     0.205066    0.218770    0.266780    0.273692    0.290289    0.306704
     0.331425    0.334563    0.340093    0.340505    0.340738    0.341049
     0.341819    0.346036    0.349027    0.349733    0.403744    0.557623

 Minimum Search - Taking Simple RFO Step
 Searching for Lamda that Minimizes Along All modes
 Value Taken    Lamda =  -0.00208647
 Calculated Step too Large.  Step scaled by  0.641973
 Step Taken.  Stepsize is  0.300000

                             Maximum     Tolerance    Cnvgd?
         Gradient           0.006703      0.000300      NO
         Displacement       0.129400      0.001200      NO
         Energy change      0.000504      0.000001      NO


 New Cartesian Coordinates Obtained by Inverse Iteration

 Displacement from previous Coordinates is:  0.327401
 ----------------------------------------------------------------
             Standard Nuclear Orientation (Angstroms)
    I     Atom           X                Y                Z
 ----------------------------------------------------------------
    1      C      -0.0398350548    -1.4579713037     0.3119566594
    2      C      -1.2308337584    -0.7106661536    -0.2327424811
    3      C      -1.2896886040     0.6252044621    -0.2807320310
    4      C      -0.1036585330     1.4690474998     0.1180199244
    5      C       1.3020704125    -0.6724145622     0.2862232437
    6      C       1.1960226048     0.7552055523    -0.2938736891
    7      H      -2.0832654083    -1.3053485910    -0.5590233276
    8      H      -0.2523766297    -1.7269932752     1.3526659335
    9      H       0.0727308670    -2.4079307699    -0.2166312666
   10      H       1.6912064392    -0.6151100011     1.3081378215
   11      H       2.0383611119    -1.2411172255    -0.2909793732
   12      H       1.2155570264     0.7122616326    -1.3896330756
   13      H       2.0701068737     1.3412563710     0.0162323788
   14      H      -0.1569122707     2.4574621518    -0.3537839568
   15      H      -0.1117014737     1.6466422284     1.2068894505
   16      H      -2.1744296030     1.1215179843    -0.6627222109
 ----------------------------------------------------------------
 Nuclear Repulsion Energy =   235.5533138464 hartrees
 There are       23 alpha and       23 beta electrons
 Applying Cartesian multipole field
    Component          Value
    ---------          -----
     (2,0,0)        1.00000E-11
     (0,2,0)        2.00000E-11
     (0,0,2)       -3.00000E-10
 Nucleus-field energy     =    -0.0000000046 hartrees
 length of FILE_MO_COEFS: 24420 
 Requested basis set is 6-31G(d)
 There are 44 shells and 110 basis functions
 in ParallelAOLoop for JobNumber:  2 JobType:  2 
 A cutoff of  1.0D-10 yielded    960 shell pairs
 There are      6237 function pairs
 in ParallelAOLoop for JobNumber: 11 JobType: 11 
 DoParallel is ON (aoloop_n) 
 Smallest overlap matrix eigenvalue = 2.24E-03
 Guess MOs from SCF MO coefficient file
 Reading MOs from coefficient file
 Reading MOs from coefficient file
 A restricted hybrid HF-DFT SCF calculation will be
 performed using Relaxed Constraint Minimization + Pulay DIIS
 Exchange:     0.2000 Hartree-Fock + 0.0800 Slater + 0.7200 B88
 Correlation:  0.1900 VWN1RPA + 0.8100 LYP
 Using SG-1 standard quadrature grid
 SCF converges when DIIS error is below 1.0E-06
 Geometry optimization detected.  Setting ReadMinima to 0
 Setting SaveMinima to 0
 in ParallelAOLoop for JobNumber: 22 JobType: 22 
 Inaccurate integrated density:
   Number of electrons =    46
   Numerical integral  =    45.990933755141
   Relative error      =    -0.0197092280 %
 Inaccurate integrated density:
   Number of electrons =    46
   Numerical integral  =    45.990933755141
   Relative error      =    -0.0197092280 %
 ---------------------------------------
  Cycle       Energy         DIIS Error
 ---------------------------------------
    1    -234.6352921719      9.73E-04 Done RCA. Switching to DIIS
 in ParallelAOLoop for JobNumber: 22 JobType: 22 
    2    -234.6410328177      9.70E-05
 in ParallelAOLoop for JobNumber: 22 JobType: 22 
    3    -234.6410537456      7.09E-05
 in ParallelAOLoop for JobNumber: 22 JobType: 22 
    4    -234.6410605619      2.67E-05
 in ParallelAOLoop for JobNumber: 22 JobType: 22 
    5    -234.6410615613      1.16E-05
 in ParallelAOLoop for JobNumber: 22 JobType: 22 
    6    -234.6410617526      3.63E-06
 in ParallelAOLoop for JobNumber: 22 JobType: 22 
    7    -234.6410617752      4.62E-07 Convergence criterion met
 ---------------------------------------
 SCF time:  CPU 18.78 s  wall 18.71 s
 SCF   energy in the final basis set = -234.6410617752
 Total energy in the final basis set = -234.6410617752
 No wavefunction analysis requested
 Calculating analytic gradient of the SCF energy
 in ParallelAOLoop for JobNumber: 111 JobType: 11 
 DoParallel is ON (aoloop_n) 
 in ParallelAOLoop for JobNumber: 122 JobType: 22 
 Gradient of SCF Energy
            1           2           3           4           5           6
    1   0.0002031   0.0007629  -0.0035827   0.0001925   0.0012758  -0.0010437
    2  -0.0015860  -0.0028083   0.0033551   0.0011102  -0.0040833   0.0014292
    3   0.0012989  -0.0003234   0.0005662  -0.0008917   0.0006103  -0.0008651
            7           8           9          10          11          12
    1   0.0001316   0.0020022   0.0006317  -0.0009997  -0.0016202  -0.0001733
    2   0.0001635   0.0025960   0.0026012  -0.0009050  -0.0005952   0.0005673
    3  -0.0006102  -0.0019703   0.0015478  -0.0008485  -0.0001785   0.0004324
           13          14          15          16
    1  -0.0003126   0.0000657  -0.0007180   0.0031847
    2   0.0000502  -0.0002887  -0.0003757  -0.0012304
    3   0.0003507  -0.0001421   0.0009218   0.0001018
 Max gradient component =       4.083E-03
 RMS gradient           =       1.486E-03
 Gradient time:  CPU 7.97 s  wall 7.97 s
 Geometry Optimization Parameters
   NAtoms,    NIC,     NZ,  NCons,   NDum,   NFix, NCnnct, MaxDiis
       16     121       0       0       0       0       0       0

 Cartesian Hessian Update
 Hessian Updated using BFGS Update


** GEOMETRY OPTIMIZATION IN DELOCALIZED INTERNAL COORDINATES **
   Searching for a Minimum

   Optimization Cycle:   5

                       Coordinates (Angstroms)
     ATOM                X               Y               Z
      1  C        -0.0398350548   -1.4579713037    0.3119566594
      2  C        -1.2308337584   -0.7106661536   -0.2327424811
      3  C        -1.2896886040    0.6252044621   -0.2807320310
      4  C        -0.1036585330    1.4690474998    0.1180199244
      5  C         1.3020704125   -0.6724145622    0.2862232437
      6  C         1.1960226048    0.7552055523   -0.2938736891
      7  H        -2.0832654083   -1.3053485910   -0.5590233276
      8  H        -0.2523766297   -1.7269932752    1.3526659335
      9  H         0.0727308670   -2.4079307699   -0.2166312666
     10  H         1.6912064392   -0.6151100011    1.3081378215
     11  H         2.0383611119   -1.2411172255   -0.2909793732
     12  H         1.2155570264    0.7122616326   -1.3896330756
     13  H         2.0701068737    1.3412563710    0.0162323788
     14  H        -0.1569122707    2.4574621518   -0.3537839568
     15  H        -0.1117014737    1.6466422284    1.2068894505
     16  H        -2.1744296030    1.1215179843   -0.6627222109
   Point Group: c1    Number of degrees of freedom:    42


   Energy is   -234.641061775

 Hessian Updated using BFGS Update

 42 Hessian modes will be used to form the next step
  Hessian Eigenvalues:
     0.000498    0.006968    0.013559    0.015483    0.019848    0.028709
     0.032237    0.036635    0.045367    0.048211    0.052155    0.055905
     0.060443    0.077315    0.083534    0.088406    0.089633    0.097094
     0.110905    0.117101    0.125076    0.159147    0.159986    0.196215
     0.204941    0.218510    0.266830    0.272867    0.290252    0.306971
     0.330999    0.334366    0.340083    0.340436    0.340760    0.341079
     0.341844    0.346301    0.349164    0.349725    0.406503    0.555376

 Minimum Search - Taking Simple RFO Step
 Searching for Lamda that Minimizes Along All modes
 Value Taken    Lamda =  -0.00217323
 Calculated Step too Large.  Step scaled by  0.357392
 Step Taken.  Stepsize is  0.300000

                             Maximum     Tolerance    Cnvgd?
         Gradient           0.003500      0.000300      NO
         Displacement       0.139271      0.001200      NO
         Energy change     -0.001139      0.000001      NO


 New Cartesian Coordinates Obtained by Inverse Iteration

 Displacement from previous Coordinates is:  0.319188
 ----------------------------------------------------------------
             Standard Nuclear Orientation (Angstroms)
    I     Atom           X                Y                Z
 ----------------------------------------------------------------
    1      C      -0.0361379467    -1.4678249792     0.2892670209
    2      C      -1.2345072102    -0.7079166035    -0.2207289683
    3      C      -1.2907364227     0.6272002002    -0.2670214063
    4      C      -0.0979501774     1.4746207243     0.1014792002
    5      C       1.2973009556    -0.6647645018     0.3066928558
    6      C       1.1991794582     0.7506040687    -0.2969965118
    7      H      -2.0985038425    -1.2992576878    -0.5221962162
    8      H      -0.2561337463    -1.7947648524     1.3139702161
    9      H       0.0843880824    -2.3927598008    -0.2853142495
   10      H       1.6550752291    -0.5891745547     1.3398999967
   11      H       2.0626116802    -1.2290430898    -0.2375224284
   12      H       1.2273552994     0.6878565921    -1.3920805023
   13      H       2.0735987301     1.3387307112     0.0086874228
   14      H      -0.1528965759     2.4526162025    -0.3921636510
   15      H      -0.0959784935     1.6807393508     1.1848953950
   16      H      -2.1933110197     1.1241842203    -0.6108641737
 ----------------------------------------------------------------
 Nuclear Repulsion Energy =   235.4512701632 hartrees
 There are       23 alpha and       23 beta electrons
 Applying Cartesian multipole field
    Component          Value
    ---------          -----
     (2,0,0)        1.00000E-11
     (0,2,0)        2.00000E-11
     (0,0,2)       -3.00000E-10
 Nucleus-field energy     =    -0.0000000043 hartrees
 length of FILE_MO_COEFS: 24420 
 Requested basis set is 6-31G(d)
 There are 44 shells and 110 basis functions
 in ParallelAOLoop for JobNumber:  2 JobType:  2 
 A cutoff of  1.0D-10 yielded    958 shell pairs
 There are      6235 function pairs
 in ParallelAOLoop for JobNumber: 11 JobType: 11 
 DoParallel is ON (aoloop_n) 
 Smallest overlap matrix eigenvalue = 2.24E-03
 Guess MOs from SCF MO coefficient file
 Reading MOs from coefficient file
 Reading MOs from coefficient file
 A restricted hybrid HF-DFT SCF calculation will be
 performed using Relaxed Constraint Minimization + Pulay DIIS
 Exchange:     0.2000 Hartree-Fock + 0.0800 Slater + 0.7200 B88
 Correlation:  0.1900 VWN1RPA + 0.8100 LYP
 Using SG-1 standard quadrature grid
 SCF converges when DIIS error is below 1.0E-06
 Geometry optimization detected.  Setting ReadMinima to 0
 Setting SaveMinima to 0
 in ParallelAOLoop for JobNumber: 22 JobType: 22 
 Inaccurate integrated density:
   Number of electrons =    46
   Numerical integral  =    45.993506182042
   Relative error      =    -0.0141169956 %
 Inaccurate integrated density:
   Number of electrons =    46
   Numerical integral  =    45.993506182042
   Relative error      =    -0.0141169956 %
 ---------------------------------------
  Cycle       Energy         DIIS Error
 ---------------------------------------
    1    -234.6381147861      9.25E-04 Done RCA. Switching to DIIS
 in ParallelAOLoop for JobNumber: 22 JobType: 22 
    2    -234.6418046740      7.68E-05
 in ParallelAOLoop for JobNumber: 22 JobType: 22 
    3    -234.6418238016      3.56E-05
 in ParallelAOLoop for JobNumber: 22 JobType: 22 
    4    -234.6418250174      2.45E-05
 in ParallelAOLoop for JobNumber: 22 JobType: 22 
    5    -234.6418259328      4.39E-06
 in ParallelAOLoop for JobNumber: 22 JobType: 22 
    6    -234.6418259555      2.54E-06
 in ParallelAOLoop for JobNumber: 22 JobType: 22 
    7    -234.6418259652      3.25E-07 Convergence criterion met
 ---------------------------------------
 SCF time:  CPU 18.11 s  wall 18.00 s
 SCF   energy in the final basis set = -234.6418259652
 Total energy in the final basis set = -234.6418259652
 No wavefunction analysis requested
 Calculating analytic gradient of the SCF energy
 in ParallelAOLoop for JobNumber: 111 JobType: 11 
 DoParallel is ON (aoloop_n) 
 in ParallelAOLoop for JobNumber: 122 JobType: 22 
 Gradient of SCF Energy
            1           2           3           4           5           6
    1  -0.0001715   0.0004379  -0.0019580  -0.0001243   0.0006941  -0.0006526
    2  -0.0010259  -0.0017283   0.0019008   0.0005131  -0.0020018   0.0007517
    3   0.0008329  -0.0003901   0.0002069  -0.0006420   0.0004124  -0.0004135
            7           8           9          10          11          12
    1   0.0002169   0.0008971   0.0003085   0.0001471  -0.0011404   0.0002405
    2   0.0000559   0.0020527   0.0010918  -0.0008617  -0.0001674   0.0003697
    3  -0.0006393  -0.0009043   0.0013965  -0.0006594  -0.0006242   0.0002595
           13          14          15          16
    1  -0.0003082   0.0000163  -0.0002782   0.0016747
    2   0.0001291  -0.0001048  -0.0002853  -0.0006897
    3   0.0004194   0.0000848   0.0005745   0.0000860
 Max gradient component =       2.053E-03
 RMS gradient           =       8.648E-04
 Gradient time:  CPU 7.86 s  wall 7.86 s
 Geometry Optimization Parameters
   NAtoms,    NIC,     NZ,  NCons,   NDum,   NFix, NCnnct, MaxDiis
       16     121       0       0       0       0       0       0

 Cartesian Hessian Update
 Hessian Updated using BFGS Update
**WARNING** Hereditary positive definiteness endangered


** GEOMETRY OPTIMIZATION IN DELOCALIZED INTERNAL COORDINATES **
   Searching for a Minimum

   Optimization Cycle:   6

                       Coordinates (Angstroms)
     ATOM                X               Y               Z
      1  C        -0.0361379467   -1.4678249792    0.2892670209
      2  C        -1.2345072102   -0.7079166035   -0.2207289683
      3  C        -1.2907364227    0.6272002002   -0.2670214063
      4  C        -0.0979501774    1.4746207243    0.1014792002
      5  C         1.2973009556   -0.6647645018    0.3066928558
      6  C         1.1991794582    0.7506040687   -0.2969965118
      7  H        -2.0985038425   -1.2992576878   -0.5221962162
      8  H        -0.2561337463   -1.7947648524    1.3139702161
      9  H         0.0843880824   -2.3927598008   -0.2853142495
     10  H         1.6550752291   -0.5891745547    1.3398999967
     11  H         2.0626116802   -1.2290430898   -0.2375224284
     12  H         1.2273552994    0.6878565921   -1.3920805023
     13  H         2.0735987301    1.3387307112    0.0086874228
     14  H        -0.1528965759    2.4526162025   -0.3921636510
     15  H        -0.0959784935    1.6807393508    1.1848953950
     16  H        -2.1933110197    1.1241842203   -0.6108641737
   Point Group: c1    Number of degrees of freedom:    42


   Energy is   -234.641825965

 Hessian Updated using BFGS Update

 42 Hessian modes will be used to form the next step
  Hessian Eigenvalues:
     0.000046    0.006915    0.013582    0.016293    0.020368    0.029598
     0.031996    0.037169    0.045801    0.049095    0.052126    0.056214
     0.061024    0.077745    0.083717    0.088598    0.090149    0.098323
     0.116057    0.124999    0.132877    0.159256    0.161297    0.199149
     0.206272    0.218763    0.267151    0.274035    0.295890    0.307760
     0.334281    0.338797    0.340111    0.340534    0.340904    0.341102
     0.342135    0.348398    0.349286    0.371702    0.538011    0.912386
**WARNING** Magnitude of eigenvalue   1 too small.  Replaced by     0.000100

 Minimum Search - Taking Simple RFO Step
 Searching for Lamda that Minimizes Along All modes
 Value Taken    Lamda =  -0.00242180
 Calculated Step too Large.  Step scaled by  0.309659
 Step Taken.  Stepsize is  0.300000

                             Maximum     Tolerance    Cnvgd?
         Gradient           0.001875      0.000300      NO
         Displacement       0.143936      0.001200      NO
         Energy change     -0.000764      0.000001      NO


 New Cartesian Coordinates Obtained by Inverse Iteration

 Displacement from previous Coordinates is:  0.317300
 ----------------------------------------------------------------
             Standard Nuclear Orientation (Angstroms)
    I     Atom           X                Y                Z
 ----------------------------------------------------------------
    1      C      -0.0319599508    -1.4764832399     0.2664918864
    2      C      -1.2375617455    -0.7052246781    -0.2081170705
    3      C      -1.2916120852     0.6292178396    -0.2517390006
    4      C      -0.0920940742     1.4794029720     0.0864516370
    5      C       1.2916381259    -0.6570217868     0.3273329434
    6      C       1.2017303843     0.7453159615    -0.3006161811
    7      H      -2.1115114207    -1.2935492394    -0.4864923485
    8      H      -0.2576904863    -1.8604456075     1.2722322193
    9      H       0.0966070989    -2.3741178724    -0.3527553415
   10      H       1.6154415273    -0.5624274508     1.3711459686
   11      H       2.0850571383    -1.2168629750    -0.1814622947
   12      H       1.2353040983     0.6614294325    -1.3946073741
   13      H       2.0775853899     1.3354117796    -0.0024511522
   14      H      -0.1492848056     2.4468831878    -0.4280047746
   15      H      -0.0795987166     1.7125476751     1.1638230742
   16      H      -2.2086964782     1.1269700019    -0.5612281911
 ----------------------------------------------------------------
 Nuclear Repulsion Energy =   235.3969719806 hartrees
 There are       23 alpha and       23 beta electrons
 Applying Cartesian multipole field
    Component          Value
    ---------          -----
     (2,0,0)        1.00000E-11
     (0,2,0)        2.00000E-11
     (0,0,2)       -3.00000E-10
 Nucleus-field energy     =    -0.0000000041 hartrees
 length of FILE_MO_COEFS: 24420 
 Requested basis set is 6-31G(d)
 There are 44 shells and 110 basis functions
 in ParallelAOLoop for JobNumber:  2 JobType:  2 
 A cutoff of  1.0D-10 yielded    957 shell pairs
 There are      6234 function pairs
 in ParallelAOLoop for JobNumber: 11 JobType: 11 
 DoParallel is ON (aoloop_n) 
 Smallest overlap matrix eigenvalue = 2.25E-03
 Guess MOs from SCF MO coefficient file
 Reading MOs from coefficient file
 Reading MOs from coefficient file
 A restricted hybrid HF-DFT SCF calculation will be
 performed using Relaxed Constraint Minimization + Pulay DIIS
 Exchange:     0.2000 Hartree-Fock + 0.0800 Slater + 0.7200 B88
 Correlation:  0.1900 VWN1RPA + 0.8100 LYP
 Using SG-1 standard quadrature grid
 SCF converges when DIIS error is below 1.0E-06
 Geometry optimization detected.  Setting ReadMinima to 0
 Setting SaveMinima to 0
 in ParallelAOLoop for JobNumber: 22 JobType: 22 
 Inaccurate integrated density:
   Number of electrons =    46
   Numerical integral  =    45.993902868255
   Relative error      =    -0.0132546342 %
 Inaccurate integrated density:
   Number of electrons =    46
   Numerical integral  =    45.993902868255
   Relative error      =    -0.0132546342 %
 ---------------------------------------
  Cycle       Energy         DIIS Error
 ---------------------------------------
    1    -234.6389908092      9.22E-04 Done RCA. Switching to DIIS
 in ParallelAOLoop for JobNumber: 22 JobType: 22 
    2    -234.6425500158      7.40E-05
 in ParallelAOLoop for JobNumber: 22 JobType: 22 
    3    -234.6425684884      3.08E-05
 in ParallelAOLoop for JobNumber: 22 JobType: 22 
    4    -234.6425692981      2.33E-05
 in ParallelAOLoop for JobNumber: 22 JobType: 22 
    5    -234.6425701204      2.60E-06
 in ParallelAOLoop for JobNumber: 22 JobType: 22 
    6    -234.6425701342      6.59E-07 Convergence criterion met
 ---------------------------------------
 SCF time:  CPU 16.28 s  wall 16.19 s
 SCF   energy in the final basis set = -234.6425701342
 Total energy in the final basis set = -234.6425701342
 No wavefunction analysis requested
 Calculating analytic gradient of the SCF energy
 in ParallelAOLoop for JobNumber: 111 JobType: 11 
 DoParallel is ON (aoloop_n) 
 in ParallelAOLoop for JobNumber: 122 JobType: 22 
 Gradient of SCF Energy
            1           2           3           4           5           6
    1  -0.0005011   0.0002398  -0.0005563  -0.0003031   0.0000728  -0.0002918
    2  -0.0004109  -0.0006290   0.0005134  -0.0000644   0.0000507   0.0001578
    3   0.0003542  -0.0004534  -0.0000065  -0.0003623   0.0002324   0.0000735
            7           8           9          10          11          12
    1   0.0002871  -0.0001705   0.0000035   0.0012059  -0.0006327   0.0005741
    2  -0.0000719   0.0013615  -0.0003819  -0.0007810   0.0002492   0.0001517
    3  -0.0006615   0.0000359   0.0011339  -0.0004151  -0.0009880   0.0001061
           13          14          15          16
    1  -0.0002758  -0.0000186   0.0000786   0.0002881
    2   0.0002002   0.0000888  -0.0002431  -0.0001912
    3   0.0004228   0.0002849   0.0002198   0.0000236
 Max gradient component =       1.362E-03
 RMS gradient           =       4.717E-04
 Gradient time:  CPU 7.91 s  wall 7.93 s
 Geometry Optimization Parameters
   NAtoms,    NIC,     NZ,  NCons,   NDum,   NFix, NCnnct, MaxDiis
       16     121       0       0       0       0       0       0

 Cartesian Hessian Update
 Hessian Updated using BFGS Update
**WARNING** Hereditary positive definiteness endangered


** GEOMETRY OPTIMIZATION IN DELOCALIZED INTERNAL COORDINATES **
   Searching for a Minimum

   Optimization Cycle:   7

                       Coordinates (Angstroms)
     ATOM                X               Y               Z
      1  C        -0.0319599508   -1.4764832399    0.2664918864
      2  C        -1.2375617455   -0.7052246781   -0.2081170705
      3  C        -1.2916120852    0.6292178396   -0.2517390006
      4  C        -0.0920940742    1.4794029720    0.0864516370
      5  C         1.2916381259   -0.6570217868    0.3273329434
      6  C         1.2017303843    0.7453159615   -0.3006161811
      7  H        -2.1115114207   -1.2935492394   -0.4864923485
      8  H        -0.2576904863   -1.8604456075    1.2722322193
      9  H         0.0966070989   -2.3741178724   -0.3527553415
     10  H         1.6154415273   -0.5624274508    1.3711459686
     11  H         2.0850571383   -1.2168629750   -0.1814622947
     12  H         1.2353040983    0.6614294325   -1.3946073741
     13  H         2.0775853899    1.3354117796   -0.0024511522
     14  H        -0.1492848056    2.4468831878   -0.4280047746
     15  H        -0.0795987166    1.7125476751    1.1638230742
     16  H        -2.2086964782    1.1269700019   -0.5612281911
   Point Group: c1    Number of degrees of freedom:    42


   Energy is   -234.642570134

 Hessian Updated using BFGS Update

 42 Hessian modes will be used to form the next step
  Hessian Eigenvalues:
     0.000053    0.006043    0.013495    0.015050    0.019379    0.029462
     0.031186    0.037110    0.045810    0.048915    0.051956    0.056437
     0.060690    0.077734    0.083692    0.088602    0.089855    0.098525
     0.116137    0.124541    0.136157    0.159277    0.161886    0.199414
     0.206644    0.219269    0.266752    0.273880    0.296026    0.307040
     0.334205    0.338946    0.340117    0.340500    0.340935    0.341084
     0.342139    0.348351    0.349277    0.371133    0.541482    1.783900
**WARNING** Magnitude of eigenvalue   1 too small.  Replaced by     0.000100

 Minimum Search - Taking Simple RFO Step
 Searching for Lamda that Minimizes Along All modes
 Value Taken    Lamda =  -0.00239456
 Calculated Step too Large.  Step scaled by  0.308266
 Step Taken.  Stepsize is  0.300000

                             Maximum     Tolerance    Cnvgd?
         Gradient           0.001423      0.000300      NO
         Displacement       0.146799      0.001200      NO
         Energy change     -0.000744      0.000001      NO


 New Cartesian Coordinates Obtained by Inverse Iteration

 Displacement from previous Coordinates is:  0.316938
 ----------------------------------------------------------------
             Standard Nuclear Orientation (Angstroms)
    I     Atom           X                Y                Z
 ----------------------------------------------------------------
    1      C      -0.0273618983    -1.4839443262     0.2435548740
    2      C      -1.2402209134    -0.7028450649    -0.1949417036
    3      C      -1.2922031557     0.6309728582    -0.2358911126
    4      C      -0.0862636349     1.4834677829     0.0718291914
    5      C       1.2850796019    -0.6494311229     0.3477594878
    6      C       1.2041585817     0.7395261976    -0.3042379209
    7      H      -2.1231113063    -1.2885232366    -0.4503521613
    8      H      -0.2570009826    -1.9236464625     1.2275419096
    9      H       0.1092562771    -2.3520096282    -0.4189371764
   10      H       1.5730389647    -0.5360258711     1.4011356821
   11      H       2.1050327450    -1.2047815435    -0.1239953152
   12      H       1.2422951797     0.6342801548    -1.3967127316
   13      H       2.0817850922     1.3313065878    -0.0142534961
   14      H      -0.1462035895     2.4400354898    -0.4630499247
   15      H      -0.0630454735     1.7430612741     1.1424744507
   16      H      -2.2218814881     1.1296029108    -0.5119200532
 ----------------------------------------------------------------
 Nuclear Repulsion Energy =   235.3801728715 hartrees
 There are       23 alpha and       23 beta electrons
 Applying Cartesian multipole field
    Component          Value
    ---------          -----
     (2,0,0)        1.00000E-11
     (0,2,0)        2.00000E-11
     (0,0,2)       -3.00000E-10
 Nucleus-field energy     =    -0.0000000039 hartrees
 length of FILE_MO_COEFS: 24420 
 Requested basis set is 6-31G(d)
 There are 44 shells and 110 basis functions
 in ParallelAOLoop for JobNumber:  2 JobType:  2 
 A cutoff of  1.0D-10 yielded    956 shell pairs
 There are      6233 function pairs
 in ParallelAOLoop for JobNumber: 11 JobType: 11 
 DoParallel is ON (aoloop_n) 
 Smallest overlap matrix eigenvalue = 2.26E-03
 Guess MOs from SCF MO coefficient file
 Reading MOs from coefficient file
 Reading MOs from coefficient file
 A restricted hybrid HF-DFT SCF calculation will be
 performed using Relaxed Constraint Minimization + Pulay DIIS
 Exchange:     0.2000 Hartree-Fock + 0.0800 Slater + 0.7200 B88
 Correlation:  0.1900 VWN1RPA + 0.8100 LYP
 Using SG-1 standard quadrature grid
 SCF converges when DIIS error is below 1.0E-06
 Geometry optimization detected.  Setting ReadMinima to 0
 Setting SaveMinima to 0
 in ParallelAOLoop for JobNumber: 22 JobType: 22 
 Inaccurate integrated density:
   Number of electrons =    46
   Numerical integral  =    45.994277539421
   Relative error      =    -0.0124401317 %
 Inaccurate integrated density:
   Number of electrons =    46
   Numerical integral  =    45.994277539421
   Relative error      =    -0.0124401317 %
 ---------------------------------------
  Cycle       Energy         DIIS Error
 ---------------------------------------
    1    -234.6398598208      9.21E-04 Done RCA. Switching to DIIS
 in ParallelAOLoop for JobNumber: 22 JobType: 22 
    2    -234.6432768025      7.23E-05
 in ParallelAOLoop for JobNumber: 22 JobType: 22 
    3    -234.6432949973      2.76E-05
 in ParallelAOLoop for JobNumber: 22 JobType: 22 
    4    -234.6432955750      2.28E-05
 in ParallelAOLoop for JobNumber: 22 JobType: 22 
    5    -234.6432963434      2.71E-06
 in ParallelAOLoop for JobNumber: 22 JobType: 22 
    6    -234.6432963557      1.48E-06
 in ParallelAOLoop for JobNumber: 22 JobType: 22 
    7    -234.6432963585      3.34E-07 Convergence criterion met
 ---------------------------------------
 SCF time:  CPU 18.53 s  wall 18.40 s
 SCF   energy in the final basis set = -234.6432963585
 Total energy in the final basis set = -234.6432963585
 No wavefunction analysis requested
 Calculating analytic gradient of the SCF energy
 in ParallelAOLoop for JobNumber: 111 JobType: 11 
 DoParallel is ON (aoloop_n) 
 in ParallelAOLoop for JobNumber: 122 JobType: 22 
 Gradient of SCF Energy
            1           2           3           4           5           6
    1  -0.0007381   0.0001249   0.0007246  -0.0004150  -0.0006132   0.0000260
    2   0.0003088   0.0004619  -0.0008395  -0.0005864   0.0020926  -0.0004303
    3  -0.0001874  -0.0004620  -0.0002679  -0.0000433   0.0001133   0.0005688
            7           8           9          10          11          12
    1   0.0003533  -0.0011979  -0.0003217   0.0021759  -0.0001125   0.0008653
    2  -0.0002070   0.0005287  -0.0018091  -0.0006706   0.0006456  -0.0000738
    3  -0.0006601   0.0008120   0.0007787  -0.0001200  -0.0012607  -0.0000320
           13          14          15          16
    1  -0.0002194  -0.0000566   0.0004193  -0.0010151
    2   0.0002521   0.0002840  -0.0002272   0.0002702
    3   0.0003978   0.0004735  -0.0001285   0.0000179
 Max gradient component =       2.176E-03
 RMS gradient           =       7.227E-04
 Gradient time:  CPU 7.90 s  wall 7.91 s
 Geometry Optimization Parameters
   NAtoms,    NIC,     NZ,  NCons,   NDum,   NFix, NCnnct, MaxDiis
       16     121       0       0       0       0       0       0

 Cartesian Hessian Update
 Hessian Updated using BFGS Update


** GEOMETRY OPTIMIZATION IN DELOCALIZED INTERNAL COORDINATES **
   Searching for a Minimum

   Optimization Cycle:   8

                       Coordinates (Angstroms)
     ATOM                X               Y               Z
      1  C        -0.0273618983   -1.4839443262    0.2435548740
      2  C        -1.2402209134   -0.7028450649   -0.1949417036
      3  C        -1.2922031557    0.6309728582   -0.2358911126
      4  C        -0.0862636349    1.4834677829    0.0718291914
      5  C         1.2850796019   -0.6494311229    0.3477594878
      6  C         1.2041585817    0.7395261976   -0.3042379209
      7  H        -2.1231113063   -1.2885232366   -0.4503521613
      8  H        -0.2570009826   -1.9236464625    1.2275419096
      9  H         0.1092562771   -2.3520096282   -0.4189371764
     10  H         1.5730389647   -0.5360258711    1.4011356821
     11  H         2.1050327450   -1.2047815435   -0.1239953152
     12  H         1.2422951797    0.6342801548   -1.3967127316
     13  H         2.0817850922    1.3313065878   -0.0142534961
     14  H        -0.1462035895    2.4400354898   -0.4630499247
     15  H        -0.0630454735    1.7430612741    1.1424744507
     16  H        -2.2218814881    1.1296029108   -0.5119200532
   Point Group: c1    Number of degrees of freedom:    42


   Energy is   -234.643296359

 Hessian Updated using BFGS Update

 42 Hessian modes will be used to form the next step
  Hessian Eigenvalues:
     0.000216    0.005116    0.013034    0.014085    0.018925    0.029076
     0.030822    0.037152    0.045814    0.048603    0.051834    0.056617
     0.060344    0.077728    0.083673    0.088525    0.089657    0.098485
     0.116069    0.124096    0.136592    0.159275    0.162002    0.199105
     0.206692    0.219771    0.266248    0.273662    0.295911    0.306385
     0.334119    0.338850    0.340119    0.340471    0.340939    0.341067
     0.342138    0.348277    0.349267    0.368438    0.541133    2.322539

 Minimum Search - Taking Simple RFO Step
 Searching for Lamda that Minimizes Along All modes
 Value Taken    Lamda =  -0.00227303
 Calculated Step too Large.  Step scaled by  0.316362
 Step Taken.  Stepsize is  0.300000

                             Maximum     Tolerance    Cnvgd?
         Gradient           0.001686      0.000300      NO
         Displacement       0.146982      0.001200      NO
         Energy change     -0.000726      0.000001      NO


 New Cartesian Coordinates Obtained by Inverse Iteration

 Displacement from previous Coordinates is:  0.317277
 ----------------------------------------------------------------
             Standard Nuclear Orientation (Angstroms)
    I     Atom           X                Y                Z
 ----------------------------------------------------------------
    1      C      -0.0224670467    -1.4903069381     0.2206890449
    2      C      -1.2426968014    -0.7009151493    -0.1810410870
    3      C      -1.2925122148     0.6323478739    -0.2198037562
    4      C      -0.0805600312     1.4868163403     0.0571520699
    5      C       1.2776773543    -0.6422411760     0.3677725771
    6      C       1.2066995602     0.7333499751    -0.3075080501
    7      H      -2.1337644765    -1.2842160795    -0.4130931542
    8      H      -0.2539271756    -1.9844396283     1.1802270272
    9      H       0.1224094679    -2.3260521988    -0.4840663408
   10      H       1.5283652247    -0.5105758072     1.4294657900
   11      H       2.1222096385    -1.1930536395    -0.0659189519
   12      H       1.2494422018     0.6070355581    -1.3980561103
   13      H       2.0861046363     1.3265257152    -0.0254007200
   14      H      -0.1435506242     2.4317812985    -0.4982945545
   15      H      -0.0468766316     1.7729313821     1.1202717387
   16      H      -2.2331990817     1.1320584737    -0.4623915228
 ----------------------------------------------------------------
 Nuclear Repulsion Energy =   235.3912538405 hartrees
 There are       23 alpha and       23 beta electrons
 Applying Cartesian multipole field
    Component          Value
    ---------          -----
     (2,0,0)        1.00000E-11
     (0,2,0)        2.00000E-11
     (0,0,2)       -3.00000E-10
 Nucleus-field energy     =    -0.0000000038 hartrees
 length of FILE_MO_COEFS: 24420 
 Requested basis set is 6-31G(d)
 There are 44 shells and 110 basis functions
 in ParallelAOLoop for JobNumber:  2 JobType:  2 
 A cutoff of  1.0D-10 yielded    955 shell pairs
 There are      6232 function pairs
 in ParallelAOLoop for JobNumber: 11 JobType: 11 
 DoParallel is ON (aoloop_n) 
 Smallest overlap matrix eigenvalue = 2.27E-03
 Guess MOs from SCF MO coefficient file
 Reading MOs from coefficient file
 Reading MOs from coefficient file
 A restricted hybrid HF-DFT SCF calculation will be
 performed using Relaxed Constraint Minimization + Pulay DIIS
 Exchange:     0.2000 Hartree-Fock + 0.0800 Slater + 0.7200 B88
 Correlation:  0.1900 VWN1RPA + 0.8100 LYP
 Using SG-1 standard quadrature grid
 SCF converges when DIIS error is below 1.0E-06
 Geometry optimization detected.  Setting ReadMinima to 0
 Setting SaveMinima to 0
 in ParallelAOLoop for JobNumber: 22 JobType: 22 
 Inaccurate integrated density:
   Number of electrons =    46
   Numerical integral  =    45.994583895076
   Relative error      =    -0.0117741411 %
 Inaccurate integrated density:
   Number of electrons =    46
   Numerical integral  =    45.994583895076
   Relative error      =    -0.0117741411 %
 ---------------------------------------
  Cycle       Energy         DIIS Error
 ---------------------------------------
    1    -234.6406231443      9.18E-04 Done RCA. Switching to DIIS
 in ParallelAOLoop for JobNumber: 22 JobType: 22 
    2    -234.6439752333      7.11E-05
 in ParallelAOLoop for JobNumber: 22 JobType: 22 
    3    -234.6439932185      2.62E-05
 in ParallelAOLoop for JobNumber: 22 JobType: 22 
    4    -234.6439936104      2.39E-05
 in ParallelAOLoop for JobNumber: 22 JobType: 22 
    5    -234.6439944213      4.59E-06
 in ParallelAOLoop for JobNumber: 22 JobType: 22 
    6    -234.6439944499      2.36E-06
 in ParallelAOLoop for JobNumber: 22 JobType: 22 
    7    -234.6439944590      1.80E-07 Convergence criterion met
 ---------------------------------------
 SCF time:  CPU 18.50 s  wall 18.39 s
 SCF   energy in the final basis set = -234.6439944590
 Total energy in the final basis set = -234.6439944590
 No wavefunction analysis requested
 Calculating analytic gradient of the SCF energy
 in ParallelAOLoop for JobNumber: 111 JobType: 11 
 DoParallel is ON (aoloop_n) 
 in ParallelAOLoop for JobNumber: 122 JobType: 22 
 Gradient of SCF Energy
            1           2           3           4           5           6
    1  -0.0008686   0.0000519   0.0019041  -0.0004914  -0.0013114   0.0003200
    2   0.0010530   0.0015160  -0.0021215  -0.0010624   0.0040461  -0.0009913
    3  -0.0007351  -0.0004119  -0.0006259   0.0002967   0.0000513   0.0010641
            7           8           9          10          11          12
    1   0.0004016  -0.0021490  -0.0006683   0.0030126   0.0004003   0.0011172
    2  -0.0003461  -0.0003994  -0.0031340  -0.0005142   0.0010283  -0.0003022
    3  -0.0006352   0.0014398   0.0002996   0.0002275  -0.0014582  -0.0001544
           13          14          15          16
    1  -0.0001414  -0.0000891   0.0007472  -0.0022358
    2   0.0002854   0.0004707  -0.0002291   0.0007009
    3   0.0003541   0.0006450  -0.0004666   0.0001092
 Max gradient component =       4.046E-03
 RMS gradient           =       1.245E-03
 Gradient time:  CPU 7.62 s  wall 7.62 s
 Geometry Optimization Parameters
   NAtoms,    NIC,     NZ,  NCons,   NDum,   NFix, NCnnct, MaxDiis
       16     121       0       0       0       0       0       0

 Cartesian Hessian Update
 Hessian Updated using BFGS Update


** GEOMETRY OPTIMIZATION IN DELOCALIZED INTERNAL COORDINATES **
   Searching for a Minimum

   Optimization Cycle:   9

                       Coordinates (Angstroms)
     ATOM                X               Y               Z
      1  C        -0.0224670467   -1.4903069381    0.2206890449
      2  C        -1.2426968014   -0.7009151493   -0.1810410870
      3  C        -1.2925122148    0.6323478739   -0.2198037562
      4  C        -0.0805600312    1.4868163403    0.0571520699
      5  C         1.2776773543   -0.6422411760    0.3677725771
      6  C         1.2066995602    0.7333499751   -0.3075080501
      7  H        -2.1337644765   -1.2842160795   -0.4130931542
      8  H        -0.2539271756   -1.9844396283    1.1802270272
      9  H         0.1224094679   -2.3260521988   -0.4840663408
     10  H         1.5283652247   -0.5105758072    1.4294657900
     11  H         2.1222096385   -1.1930536395   -0.0659189519
     12  H         1.2494422018    0.6070355581   -1.3980561103
     13  H         2.0861046363    1.3265257152   -0.0254007200
     14  H        -0.1435506242    2.4317812985   -0.4982945545
     15  H        -0.0468766316    1.7729313821    1.1202717387
     16  H        -2.2331990817    1.1320584737   -0.4623915228
   Point Group: c1    Number of degrees of freedom:    42


   Energy is   -234.643994459

 Hessian Updated using BFGS Update

 42 Hessian modes will be used to form the next step
  Hessian Eigenvalues:
     0.000455    0.004969    0.012801    0.014012    0.018859    0.028985
     0.030770    0.037301    0.045833    0.048498    0.051806    0.056669
     0.060246    0.077735    0.083673    0.088504    0.089645    0.098479
     0.116101    0.124014    0.136630    0.159275    0.162035    0.198990
     0.206703    0.220175    0.266123    0.273653    0.295875    0.306261
     0.334088    0.338800    0.340125    0.340470    0.340939    0.341059
     0.342138    0.348264    0.349265    0.367434    0.540926    2.547532

 Minimum Search - Taking Simple RFO Step
 Searching for Lamda that Minimizes Along All modes
 Value Taken    Lamda =  -0.00206034
 Calculated Step too Large.  Step scaled by  0.335307
 Step Taken.  Stepsize is  0.300000

                             Maximum     Tolerance    Cnvgd?
         Gradient           0.002777      0.000300      NO
         Displacement       0.146373      0.001200      NO
         Energy change     -0.000698      0.000001      NO


 New Cartesian Coordinates Obtained by Inverse Iteration

 Displacement from previous Coordinates is:  0.317782
 ----------------------------------------------------------------
             Standard Nuclear Orientation (Angstroms)
    I     Atom           X                Y                Z
 ----------------------------------------------------------------
    1      C      -0.0174001808    -1.4956116081     0.1982037137
    2      C      -1.2451147345    -0.6994926178    -0.1663098690
    3      C      -1.2925398162     0.6332940982    -0.2035468161
    4      C      -0.0750495669     1.4894644546     0.0423229035
    5      C       1.2695039027    -0.6356304161     0.3872848341
    6      C       1.2094106425     0.7268489439    -0.3102408356
    7      H      -2.1436677683    -1.2805484536    -0.3745601802
    8      H      -0.2485500950    -2.0429995725     1.1305194905
    9      H       0.1363391925    -2.2957812783    -0.5480702980
   10      H       1.4819423621    -0.4864483531     1.4559000925
   11      H       2.1364425704    -1.1820071840    -0.0076890083
   12      H       1.2569231314     0.5799374710    -1.3984833767
   13      H       2.0905049565     1.3211700165    -0.0354976062
   14      H      -0.1412936537     2.4219418993    -0.5341195453
   15      H      -0.0314469818     1.8025113867     1.0970225771
   16      H      -2.2426499609     1.1343972134    -0.4127320760
 ----------------------------------------------------------------
 Nuclear Repulsion Energy =   235.4246977334 hartrees
 There are       23 alpha and       23 beta electrons
 Applying Cartesian multipole field
    Component          Value
    ---------          -----
     (2,0,0)        1.00000E-11
     (0,2,0)        2.00000E-11
     (0,0,2)       -3.00000E-10
 Nucleus-field energy     =    -0.0000000036 hartrees
 length of FILE_MO_COEFS: 24420 
 Requested basis set is 6-31G(d)
 There are 44 shells and 110 basis functions
 in ParallelAOLoop for JobNumber:  2 JobType:  2 
 A cutoff of  1.0D-10 yielded    955 shell pairs
 There are      6232 function pairs
 in ParallelAOLoop for JobNumber: 11 JobType: 11 
 DoParallel is ON (aoloop_n) 
 Smallest overlap matrix eigenvalue = 2.28E-03
 Guess MOs from SCF MO coefficient file
 Reading MOs from coefficient file
 Reading MOs from coefficient file
 A restricted hybrid HF-DFT SCF calculation will be
 performed using Relaxed Constraint Minimization + Pulay DIIS
 Exchange:     0.2000 Hartree-Fock + 0.0800 Slater + 0.7200 B88
 Correlation:  0.1900 VWN1RPA + 0.8100 LYP
 Using SG-1 standard quadrature grid
 SCF converges when DIIS error is below 1.0E-06
 Geometry optimization detected.  Setting ReadMinima to 0
 Setting SaveMinima to 0
 in ParallelAOLoop for JobNumber: 22 JobType: 22 
 Inaccurate integrated density:
   Number of electrons =    46
   Numerical integral  =    45.994842255997
   Relative error      =    -0.0112124870 %
 Inaccurate integrated density:
   Number of electrons =    46
   Numerical integral  =    45.994842255997
   Relative error      =    -0.0112124870 %
 ---------------------------------------
  Cycle       Energy         DIIS Error
 ---------------------------------------
    1    -234.6412920943      9.13E-04 Done RCA. Switching to DIIS
 in ParallelAOLoop for JobNumber: 22 JobType: 22 
    2    -234.6446340107      7.05E-05
 in ParallelAOLoop for JobNumber: 22 JobType: 22 
    3    -234.6446517265      2.72E-05
 in ParallelAOLoop for JobNumber: 22 JobType: 22 
    4    -234.6446520120      2.63E-05
 in ParallelAOLoop for JobNumber: 22 JobType: 22 
    5    -234.6446529890      5.79E-06
 in ParallelAOLoop for JobNumber: 22 JobType: 22 
    6    -234.6446530385      2.08E-06
 in ParallelAOLoop for JobNumber: 22 JobType: 22 
    7    -234.6446530467      1.56E-07 Convergence criterion met
 ---------------------------------------
 SCF time:  CPU 18.28 s  wall 18.17 s
 SCF   energy in the final basis set = -234.6446530467
 Total energy in the final basis set = -234.6446530467
 No wavefunction analysis requested
 Calculating analytic gradient of the SCF energy
 in ParallelAOLoop for JobNumber: 111 JobType: 11 
 DoParallel is ON (aoloop_n) 
 in ParallelAOLoop for JobNumber: 122 JobType: 22 
 Gradient of SCF Energy
            1           2           3           4           5           6
    1  -0.0009159  -0.0000298   0.0029912  -0.0005392  -0.0019837   0.0006013
    2   0.0017372   0.0024988  -0.0033348  -0.0014940   0.0058250  -0.0014881
    3  -0.0011603  -0.0003263  -0.0010735   0.0006472   0.0000028   0.0015562
            7           8           9          10          11          12
    1   0.0004285  -0.0030064  -0.0009623   0.0036904   0.0008908   0.0013197
    2  -0.0004837  -0.0013937  -0.0042639  -0.0003014   0.0013839  -0.0005286
    3  -0.0005889   0.0019246  -0.0003165   0.0006228  -0.0015988  -0.0002709
           13          14          15          16
    1  -0.0000500  -0.0001129   0.0010497  -0.0033712
    2   0.0003022   0.0006484  -0.0002230   0.0011156
    3   0.0002923   0.0007885  -0.0007945   0.0002955
 Max gradient component =       5.825E-03
 RMS gradient           =       1.770E-03
 Gradient time:  CPU 7.63 s  wall 7.64 s
 Geometry Optimization Parameters
   NAtoms,    NIC,     NZ,  NCons,   NDum,   NFix, NCnnct, MaxDiis
       16     121       0       0       0       0       0       0

 Cartesian Hessian Update
 Hessian Updated using BFGS Update


** GEOMETRY OPTIMIZATION IN DELOCALIZED INTERNAL COORDINATES **
   Searching for a Minimum

   Optimization Cycle:  10

                       Coordinates (Angstroms)
     ATOM                X               Y               Z
      1  C        -0.0174001808   -1.4956116081    0.1982037137
      2  C        -1.2451147345   -0.6994926178   -0.1663098690
      3  C        -1.2925398162    0.6332940982   -0.2035468161
      4  C        -0.0750495669    1.4894644546    0.0423229035
      5  C         1.2695039027   -0.6356304161    0.3872848341
      6  C         1.2094106425    0.7268489439   -0.3102408356
[...]
max-force
        0.0015366143
        0.0007175858
        0.0015623845
        0.0067033826
        0.0034999482
        0.0018752636
        0.0014230109
        0.0016862152
        0.0027767488
        0.0041744995
        0.0053962177
        0.0063824077
        0.0070577129
        0.0072965948
        0.0068305768
        0.0051767648
        0.0021555908
        0.0007414766
        0.0001899433
        0.0001265170
        0.0000441429
        0.0000096591
max-step
        0.1147502278
        0.1511457854
        0.1866004472
        0.1293995808
        0.1392709536
        0.1439357621
        0.1467988705
        0.1469817255
        0.1463728859
        0.1456893355
        0.1442815757
        0.1456364968
        0.1489102443
        0.1534921998
        0.1589296170
        0.1191637777
        0.0236611656
        0.0371877251
        0.0242140946
        0.0047792438
        0.0039156830
        0.0011695389
[GEOMETRIES] (XYZ)
  16
Step 1
  C     -0.05507400     -1.42496900      0.37988600
  C     -1.21956900     -0.72352300     -0.27299100
  C     -1.28075700      0.61052100     -0.33641200
  C     -0.12107500      1.44486500      0.15255400
  C      1.31116900     -0.68570200      0.22461400
  C      1.19747400      0.77210200     -0.27355100
  H     -2.03909700     -1.33428300     -0.64878400
  H     -0.27662800     -1.52016200      1.45145600
  H      0.02574500     -2.45191300      0.01109200
  H      1.83065400     -0.70553700      1.18919700
  H      1.94531100     -1.24247800     -0.47352400
  H      1.22870800      0.78545500     -1.36978500
  H      2.06045500      1.35318500      0.07452900
  H     -0.17477900      2.46336400     -0.24946400
  H     -0.15425800      1.54378800      1.24996300
  H     -2.13492500      1.10633300     -0.78877600
  16
Step 2
  C     -0.05254358     -1.43359400      0.36477279
  C     -1.22401452     -0.71989138     -0.26568749
  C     -1.28364839      0.61418551     -0.32577117
  C     -0.11703958      1.45060309      0.14170627
  C      1.30988122     -0.68140104      0.23851490
  C      1.19816588      0.76853935     -0.28068865
  H     -2.05080571     -1.32634243     -0.63232588
  H     -0.27720135     -1.57046321      1.43360940
  H      0.03712726     -2.44844062     -0.04026455
  H      1.80091519     -0.68301590      1.21890147
  H      1.97292587     -1.24125541     -0.43101249
  H      1.23272347      0.76766433     -1.37714810
  H      2.06143770      1.35243613      0.06176984
  H     -0.17167891      2.46454165     -0.27205537
  H     -0.13987391      1.56559228      1.23733358
  H     -2.15301662      1.11188765     -0.75165054
  16
Step 3
  C     -0.04892167     -1.44449845      0.34409774
  C     -1.22910910     -0.71561393     -0.25542287
  C     -1.28668174      0.61842871     -0.31129306
  C     -0.11158082      1.45764684      0.12755854
  C      1.30738910     -0.67530046      0.25748555
  C      1.19924882      0.76365996     -0.28876008
  H     -2.06598708     -1.31694954     -0.60729454
  H     -0.27792902     -1.63687288      1.40597858
  H      0.05159022     -2.44075666     -0.10846537
  H      1.76138234     -0.65373174      1.25627484
  H      2.00594650     -1.23731510     -0.37450487
  H      1.23762419      0.74356585     -1.38521535
  H      2.06338627      1.35087152      0.04573668
  H     -0.16743709      2.46455728     -0.30349758
  H     -0.12171053      1.59538823      1.22028642
  H     -2.17385638      1.11796638     -0.70296062
  16
Step 4
  C     -0.04198016     -1.44643154      0.33455566
  C     -1.22523325     -0.71273279     -0.24314049
  C     -1.28931751      0.62477465     -0.28860535
  C     -0.10891959      1.46312715      0.14033939
  C      1.30576614     -0.68169704      0.26682914
  C      1.18957043      0.75789427     -0.29279185
  H     -2.06316066     -1.31036822     -0.59994981
  H     -0.23808158     -1.65727674      1.38703576
  H      0.06393287     -2.41455375     -0.15016314
  H      1.71557293     -0.63793447      1.27908440
  H      2.01311395     -1.25800954     -0.33567343
  H      1.18658926      0.73303195     -1.38853593
  H      2.06756129      1.34112025      0.01077582
  H     -0.15965337      2.46091126     -0.31033436
  H     -0.12839075      1.60975020      1.23458150
  H     -2.14401600      1.11944037     -0.72400330
  16
Step 5
  C     -0.03983505     -1.45797130      0.31195666
  C     -1.23083376     -0.71066615     -0.23274248
  C     -1.28968860      0.62520446     -0.28073203
  C     -0.10365853      1.46904750      0.11801992
  C      1.30207041     -0.67241456      0.28622324
  C      1.19602260      0.75520555     -0.29387369
  H     -2.08326541     -1.30534859     -0.55902333
  H     -0.25237663     -1.72699328      1.35266593
  H      0.07273087     -2.40793077     -0.21663127
  H      1.69120644     -0.61511000      1.30813782
  H      2.03836111     -1.24111723     -0.29097937
  H      1.21555703      0.71226163     -1.38963308
  H      2.07010687      1.34125637      0.01623238
  H     -0.15691227      2.45746215     -0.35378396
  H     -0.11170147      1.64664223      1.20688945
  H     -2.17442960      1.12151798     -0.66272221
  16
Step 6
  C     -0.03613795     -1.46782498      0.28926702
  C     -1.23450721     -0.70791660     -0.22072897
  C     -1.29073642      0.62720020     -0.26702141
  C     -0.09795018      1.47462072      0.10147920
  C      1.29730096     -0.66476450      0.30669286
  C      1.19917946      0.75060407     -0.29699651
  H     -2.09850384     -1.29925769     -0.52219622
  H     -0.25613375     -1.79476485      1.31397022
  H      0.08438808     -2.39275980     -0.28531425
  H      1.65507523     -0.58917455      1.33990000
  H      2.06261168     -1.22904309     -0.23752243
  H      1.22735530      0.68785659     -1.39208050
  H      2.07359873      1.33873071      0.00868742
  H     -0.15289658      2.45261620     -0.39216365
  H     -0.09597849      1.68073935      1.18489539
  H     -2.19331102      1.12418422     -0.61086417
  16
Step 7
  C     -0.03195995     -1.47648324      0.26649189
  C     -1.23756175     -0.70522468     -0.20811707
  C     -1.29161209      0.62921784     -0.25173900
  C     -0.09209407      1.47940297      0.08645164
  C      1.29163813     -0.65702179      0.32733294
  C      1.20173038      0.74531596     -0.30061618
  H     -2.11151142     -1.29354924     -0.48649235
  H     -0.25769049     -1.86044561      1.27223222
  H      0.09660710     -2.37411787     -0.35275534
  H      1.61544153     -0.56242745      1.37114597
  H      2.08505714     -1.21686297     -0.18146229
  H      1.23530410      0.66142943     -1.39460737
  H      2.07758539      1.33541178     -0.00245115
  H     -0.14928481      2.44688319     -0.42800477
  H     -0.07959872      1.71254768      1.16382307
  H     -2.20869648      1.12697000     -0.56122819
  16
Step 8
  C     -0.02736190     -1.48394433      0.24355487
  C     -1.24022091     -0.70284506     -0.19494170
  C     -1.29220316      0.63097286     -0.23589111
  C     -0.08626363      1.48346778      0.07182919
  C      1.28507960     -0.64943112      0.34775949
  C      1.20415858      0.73952620     -0.30423792
  H     -2.12311131     -1.28852324     -0.45035216
  H     -0.25700098     -1.92364646      1.22754191
  H      0.10925628     -2.35200963     -0.41893718
  H      1.57303896     -0.53602587      1.40113568
  H      2.10503274     -1.20478154     -0.12399532
  H      1.24229518      0.63428015     -1.39671273
  H      2.08178509      1.33130659     -0.01425350
  H     -0.14620359      2.44003549     -0.46304992
  H     -0.06304547      1.74306127      1.14247445
  H     -2.22188149      1.12960291     -0.51192005
  16
Step 9
  C     -0.02246705     -1.49030694      0.22068904
  C     -1.24269680     -0.70091515     -0.18104109
  C     -1.29251221      0.63234787     -0.21980376
  C     -0.08056003      1.48681634      0.05715207
  C      1.27767735     -0.64224118      0.36777258
  C      1.20669956      0.73334998     -0.30750805
  H     -2.13376448     -1.28421608     -0.41309315
  H     -0.25392718     -1.98443963      1.18022703
  H      0.12240947     -2.32605220     -0.48406634
  H      1.52836522     -0.51057581      1.42946579
  H      2.12220964     -1.19305364     -0.06591895
  H      1.24944220      0.60703556     -1.39805611
  H      2.08610464      1.32652572     -0.02540072
  H     -0.14355062      2.43178130     -0.49829455
  H     -0.04687663      1.77293138      1.12027174
  H     -2.23319908      1.13205847     -0.46239152
  16
Step 10
  C     -0.01740018     -1.49561161      0.19820371
  C     -1.24511473     -0.69949262     -0.16630987
  C     -1.29253982      0.63329410     -0.20354682
  C     -0.07504957      1.48946445      0.04232290
  C      1.26950390     -0.63563042      0.38728483
  C      1.20941064      0.72684894     -0.31024084
  H     -2.14366777     -1.28054845     -0.37456018
  H     -0.24855010     -2.04299957      1.13051949
  H      0.13633919     -2.29578128     -0.54807030
  H      1.48194236     -0.48644835      1.45590009
  H      2.13644257     -1.18200718     -0.00768901
  H      1.25692313      0.57993747     -1.39848338
  H      2.09050496      1.32117002     -0.03549761
  H     -0.14129365      2.42194190     -0.53411955
  H     -0.03144698      1.80251139      1.09702258
  H     -2.24264996      1.13439721     -0.41273208
  16
Step 11
  C     -0.01220869     -1.49982872      0.17614590
  C     -1.24750638     -0.69857407     -0.15075632
  C     -1.29228113      0.63380844     -0.18720879
  C     -0.06979074      1.49140059      0.02732014
  C      1.26071256     -0.62976113      0.40613982
  C      1.21231885      0.72007008     -0.31241301
  H     -2.15291804     -1.27738899     -0.33460137
  H     -0.24078393     -2.09904706      1.07853580
  H      0.15091662     -2.26110356     -0.61063983
  H      1.43398814     -0.46388362      1.48022235
  H      2.14790465     -1.17197006      0.05064754
  H      1.26476475      0.55321242     -1.39800134
  H      2.09493873      1.31534890     -0.04441686
  H     -0.13947876      2.41043447     -0.57055541
  H     -0.01703152      1.83167906      1.07271941
  H     -2.25019112      1.13664924     -0.36313402
  16
Step 12
  C     -0.00687542     -1.50300275      0.15435861
  C     -1.24983404     -0.69815963     -0.13428167
  C     -1.29173200      0.63390216     -0.17079417
  C     -0.06484413      1.49269989      0.01203997
  C      1.25151107     -0.62488586      0.42406574
  C      1.21551648      0.71315250     -0.31394123
  H     -2.16155346     -1.27463186     -0.29269554
  H     -0.23041647     -2.15227151      1.02425224
  H      0.16564739     -2.22243003     -0.67137791
  H      1.38444377     -0.44328114      1.50213740
  H      2.15675580     -1.16335904      0.10895066
  H      1.27329291      0.52749667     -1.39659809
  H      2.09932020      1.30929715     -0.05167814
  H     -0.13814971      2.39714979     -0.60784675
  H     -0.00396388      1.86060258      1.04722395
  H     -2.25576450      1.13876710     -0.31381106
  16
Step 13
  C     -0.00134423     -1.50521553      0.13270600
  C     -1.25200264     -0.69832218     -0.11699486
  C     -1.29084403      0.63355405     -0.15433087
  C     -0.06022336      1.49339939     -0.00354948
  C      1.24213645     -0.62129831      0.44068578
  C      1.21912931      0.70622403     -0.31477657
  H     -2.16955916     -1.27224446     -0.24831781
  H     -0.21734778     -2.20199313      0.96795391
  H      0.18024461     -2.18029153     -0.72982151
  H      1.33281888     -0.42491265      1.52117087
  H      2.16306533     -1.15669561      0.16687702
  H      1.28277242      0.50364765     -1.39437255
  H      2.10361586      1.30317174     -0.05672539
  H     -0.13720048      2.38190197     -0.64617371
  H      0.00734373      1.88941356      1.02049262
  H     -2.25925092      1.14070702     -0.26481946
  16
Step 14
  C      0.00444103     -1.50659085      0.11134593
  C     -1.25391905     -0.69909877     -0.09888437
  C     -1.28958468      0.63279929     -0.13739577
  C     -0.05595476      1.49357966     -0.01923073
  C      1.23286558     -0.61933254      0.45586719
  C      1.22313818      0.69928310     -0.31480613
  H     -2.17677708     -1.27008064     -0.20180566
  H     -0.20123657     -2.24763260      0.91040297
  H      0.19477459     -2.13443538     -0.78572480
  H      1.27877229     -0.40919266      1.53697296
  H      2.16677040     -1.15257115      0.22389041
  H      1.29270691      0.48201407     -1.39137015
  H      2.10782686      1.29698675     -0.05953251
  H     -0.13654778      2.36436945     -0.68565222
  H      0.01648991      1.91841840      0.99267040
  H     -2.26041181      1.14252986     -0.21674352
  16
Step 15
  C      0.01040391     -1.50717671      0.09069682
  C     -1.25555353     -0.70042828     -0.07957276
  C     -1.28806199      0.63184198     -0.11940931
  C     -0.05222996      1.49352096     -0.03485347
  C      1.22396166     -0.61957703      0.46976863
  C      1.22733102      0.69228951     -0.31366450
  H     -2.18308242     -1.26790201     -0.15374588
  H     -0.18078781     -2.28890662      0.85249120
  H      0.20914704     -2.08348554     -0.83876517
  H      1.22313020     -0.39761618      1.54949978
  H      2.16736525     -1.15221138      0.27889050
  H      1.30255859      0.46308986     -1.38741604
  H      2.11171912      1.29068290     -0.05966253
  H     -0.13623954      2.34388666     -0.72700471
  H      0.02273353      1.94869855      0.96361538
  H     -2.25904109      1.14433932     -0.17086393
  16
Step 16
  C      0.01629219     -1.50689100      0.07132773
  C     -1.25695916     -0.70221705     -0.05786008
  C     -1.28641520      0.63101624     -0.09927444
  C     -0.04926486      1.49367037     -0.05002329
  C      1.21577243     -0.62307138      0.48220892
  C      1.23146960      0.68548056     -0.31053599
  H     -2.18865201     -1.26528300     -0.10423641
  H     -0.15361423     -2.32523770      0.79534031
  H      0.22316910     -2.02560891     -0.88782084
  H      1.16731002     -0.39305064      1.55857809
  H      2.16395890     -1.15800177      0.32927406
  H      1.31166782      0.44841421     -1.38201073
  H      2.11499456      1.28438090     -0.05585482
  H     -0.13643609      2.31906386     -0.77140604
  H      0.02481979      1.98217029      0.93306875
  H     -2.25475885      1.14621104     -0.13077121
  16
Step 17
  C      0.01997901     -1.50593258      0.05928598
  C     -1.25765992     -0.70378746     -0.03948665
  C     -1.28536432      0.63112101     -0.08173218
  C     -0.04794086      1.49482360     -0.05956613
  C      1.21111919     -0.62981567      0.48864895
  C      1.23401313      0.68145255     -0.30594819
  H     -2.19237415     -1.26262721     -0.06847903
  H     -0.12523636     -2.34473077      0.75869541
  H      0.23223820     -1.97903724     -0.91722086
  H      1.12927057     -0.39929370      1.56146826
  H      2.15684987     -1.17180334      0.35688865
  H      1.31708724      0.44564213     -1.37688172
  H      2.11625819      1.27996081     -0.04717529
  H     -0.13735029      2.29627076     -0.80680639
  H      0.02113464      2.01144728      0.91042607
  H     -2.24867014      1.14735581     -0.11211286
  16
Step 18
  C      0.01958921     -1.50563581      0.06224577
  C     -1.25695859     -0.70365914     -0.03890367
  C     -1.28545191      0.63214640     -0.07853822
  C     -0.04823962      1.49626155     -0.05532687
  C      1.21296650     -0.63266342      0.48534283
  C      1.23289740      0.68279614     -0.30525154
  H     -2.19201061     -1.26164896     -0.07596597
  H     -0.11825973     -2.33600815      0.77005693
  H      0.23086553     -1.98264694     -0.90970323
  H      1.13294860     -0.40623521      1.55824574
  H      2.15391482     -1.18000979      0.34707126
  H      1.31150491      0.45258887     -1.37732657
  H      2.11585257      1.28007737     -0.04620389
  H     -0.13830649      2.29561716     -0.80439005
  H      0.01808125      2.01299508      0.91535265
  H     -2.24603986      1.14707085     -0.12670119
  16
Step 19
  C      0.01869447     -1.50521007      0.06794669
  C     -1.25558209     -0.70325293     -0.04490165
  C     -1.28571194      0.63300627     -0.08209938
  C     -0.04853865      1.49709079     -0.04889659
  C      1.21496731     -0.63280598      0.48127140
  C      1.23069145      0.68435549     -0.30756464
  H     -2.18964168     -1.26232603     -0.09339332
  H     -0.11903331     -2.32223363      0.78977521
  H      0.22792200     -1.99786671     -0.89521287
  H      1.14409235     -0.40854023      1.55476058
  H      2.15246226     -1.18344431      0.33482405
  H      1.30350939      0.45826884     -1.38074534
  H      2.11516269      1.28032504     -0.05054448
  H     -0.13819114      2.30284314     -0.79091638
  H      0.01761561      2.00444565      0.92711187
  H     -2.24506472      1.14639066     -0.14141116
  16
Step 20
  C      0.01845798     -1.50526111      0.07140359
  C     -1.25489499     -0.70291875     -0.04734652
  C     -1.28544675      0.63320201     -0.08350820
  C     -0.04818902      1.49703577     -0.04434388
  C      1.21624996     -0.63197630      0.47937309
  C      1.22971377      0.68513380     -0.30924837
  H     -2.18838989     -1.26233126     -0.10395402
  H     -0.12106138     -2.31685851      0.79938526
  H      0.22660150     -2.00598449     -0.88801840
  H      1.14821796     -0.40678828      1.55288492
  H      2.15347482     -1.18268191      0.33057150
  H      1.29626451      0.45846314     -1.38273176
  H      2.11595824      1.28070468     -0.05719061
  H     -0.13808054      2.30807482     -0.78058947
  H      0.01910019      1.99716915      0.93519671
  H     -2.24462236      1.14606323     -0.15187985
  16
Step 21
  C      0.01843660     -1.50510127      0.07206836
  C     -1.25463509     -0.70290618     -0.04887794
  C     -1.28553713      0.63327250     -0.08560229
  C     -0.04818186      1.49702652     -0.04394003
  C      1.21617934     -0.63173461      0.47914515
  C      1.22935036      0.68499045     -0.31034286
  H     -2.18779560     -1.26288766     -0.10549422
  H     -0.12162307     -2.31534289      0.80120231
  H      0.22633331     -2.00767478     -0.88632792
  H      1.14931209     -0.40570406      1.55254750
  H      2.15321256     -1.18280783      0.33091152
  H      1.29556338      0.45892352     -1.38397215
  H      2.11578804      1.28026978     -0.05837043
  H     -0.13767096      2.31006959     -0.77798525
  H      0.01942603      1.99477077      0.93691005
  H     -2.24480401      1.14588214     -0.15186780
  16
Step 22
  C      0.01856467     -1.50510245      0.07175535
  C     -1.25472580     -0.70291222     -0.04828280
  C     -1.28551058      0.63324180     -0.08527776
  C     -0.04811068      1.49696591     -0.04422009
  C      1.21601433     -0.63168912      0.47947978
  C      1.22945185      0.68482088     -0.31033881
  H     -2.18794361     -1.26282927     -0.10437525
  H     -0.12133841     -2.31635373      0.79987325
  H      0.22663560     -2.00643122     -0.88734886
  H      1.14834814     -0.40532251      1.55280900
  H      2.15327210     -1.18259709      0.33198960
  H      1.29564501      0.45837391     -1.38389788
  H      2.11591575      1.28013898     -0.05856919
  H     -0.13761965      2.30980257     -0.77849415
  H      0.01956981      1.99500653      0.93644690
  H     -2.24481452      1.14593304     -0.15154508

======= END OF MOLDEN-FORMATTED INPUT FILE =======


        *************************************************************
        *                                                           *
        *  Thank you very much for using Q-Chem.  Have a nice day.  *
        *                                                           *
        *************************************************************


0 sent ACK to 0 
now end server 0 ... 
