  6
Step 2
  C      0.66560204      0.00000000      0.00000000
  C     -0.66555970      0.00000000      0.00000000
  H     -1.23967945      0.92228617     -0.05058564
  H      1.23965778     -0.92231833      0.05060017
  H      1.23965778      0.92231833     -0.05060017
  H     -1.23967945     -0.92228617      0.05058564
  6
Step 3
  C      0.66543421      0.00807607      0.00254083
  C     -0.66543186     -0.00709879     -0.00260160
  H     -1.23542454     -0.06339719     -0.92708417
  H      1.24370124     -0.03492594     -0.91749945
  H      1.23541877      0.06474270      0.92700959
  H     -1.24367682      0.03648516      0.91742380
