Process 0 of 1 is on gollum407.lsa.umich.edu - thread support 0
initial socket setup ...start
initial socket setup ...done 
now start server 0 ... 
 Q-Chem 4.3.0 for Intel X86 EM64T Linux

 Parts of Q-Chem use Armadillo 5.200.1 (Boston Tea Smuggler).
 http://arma.sourceforge.net/

 Q-Chem begins on Thu Nov 17 14:32:52 2016  

Host: gollum407.lsa.umich.edu
0

     Scratch files written to /tmp/77279452.satyr/qchem31591//
 Parallel job on  1  processors

Checking the input file for inconsistencies...  ...done.

--------------------------------------------------------------
User input:
--------------------------------------------------------------
 $rem
 JOBTYPE OPT
 EXCHANGE B3LYP
! CORRELATION PBE
! UNRESTRICTED TRUE
 SCF_ALGORITHM rca_diis
 SCF_MAX_CYCLES 150
! BASIS LANL2DZ
! ECP LANL2DZ
 BASIS 6-31G*
 WAVEFUNCTION_ANALYSIS FALSE
 GEOM_OPT_MAX_CYCLES 300

scf_convergence 6

 SYM_IGNORE TRUE
 SYMMETRY   FALSE

molden_format true
 $end


$molecule
0 1
  N 0.741012 -1.697992 1.692989
  B 0.741355 1.182848 -0.894736
  B -1.011687 0.496845 -1.254647
  N -0.291131 0.605307 0.115444
  H 0.088145 -2.269716 2.223394
  H 1.469390 -1.404629 2.340150
  H 1.186350 -2.315013 1.017372
  H 0.941103 2.357813 -0.791270
  H 1.656528 0.447734 -1.127498
  H -0.039734 1.087932 -1.983708
  H -1.937606 1.242889 -1.389964
  H -1.072610 -0.611442 -1.697488
  H -0.014135 -0.249881 0.618704
  H -0.687935 1.284769 0.752197
$end
--------------------------------------------------------------
 ----------------------------------------------------------------
             Standard Nuclear Orientation (Angstroms)
    I     Atom           X                Y                Z
 ----------------------------------------------------------------
    1      N       0.7410120000    -1.6979920000     1.6929890000
    2      B       0.7413550000     1.1828480000    -0.8947360000
    3      B      -1.0116870000     0.4968450000    -1.2546470000
    4      N      -0.2911310000     0.6053070000     0.1154440000
    5      H       0.0881450000    -2.2697160000     2.2233940000
    6      H       1.4693900000    -1.4046290000     2.3401500000
    7      H       1.1863500000    -2.3150130000     1.0173720000
    8      H       0.9411030000     2.3578130000    -0.7912700000
    9      H       1.6565280000     0.4477340000    -1.1274980000
   10      H      -0.0397340000     1.0879320000    -1.9837080000
   11      H      -1.9376060000     1.2428890000    -1.3899640000
   12      H      -1.0726100000    -0.6114420000    -1.6974880000
   13      H      -0.0141350000    -0.2498810000     0.6187040000
   14      H      -0.6879350000     1.2847690000     0.7521970000
 ----------------------------------------------------------------
 Nuclear Repulsion Energy =   118.6492648395 hartrees
 There are       17 alpha and       17 beta electrons
 Requested basis set is 6-31G(d)
 There are 36 shells and 80 basis functions

 Total QAlloc Memory Limit   2000 MB
 Mega-Array Size        61 MB
 MEM_STATIC part        62 MB
 in ParallelAOLoop for JobNumber:  2 JobType:  2 
 A cutoff of  1.0D-10 yielded    621 shell pairs
 There are      3238 function pairs
 in ParallelAOLoop for JobNumber: 11 JobType: 11 
 DoParallel is ON (aoloop_n) 
 
 -------------------------------------------------------
 OpenMP Integral Computing Module                       
 Release: version 1.0, May 2013, Q-Chem Inc. Pittsburgh 
 -------------------------------------------------------
 Integral Job Info:
 Integral job number is                      11
 Integral operator is                         1
 short-range coefficients                     0
 long-range coefficients              100000000
 Omega coefficients                           0
 if combine SR and LR in K                    0
 Integral screening is                        0
 Integral computing path is                   2
 max size of driver memory is            800000
 size of driver memory is                593474
 size of scratch memory is              2260544
 max col of scratch BK array               1296
 max len of scratch array in speh3          155
 max len of scratch index in speh4           18
 max int batch size is                      520
 min int batch size is                       52
 fixed nKL is                                52
 max L of basis functions is                  2
 order of int derivative is                   0
 number of shells is                         36
 number of basis is                          80
 number of cartesian basis is                80
 number of contracted shell pairs           621
 number of primitive shell pairs           2320
 maxK2 (contraction) of shell pair           36
 max number of K2 of shell pair               1
 max number of CS2 of shell pair            106
 max number of PS2 of shell pair            360
 mem total for path MDJ                   14766
 -------------------------------------------------------
 Smallest overlap matrix eigenvalue = 7.50E-03

 Scale SEOQF with 1.000000e-01/1.000000e-01/1.000000e-01

 Standard Electronic Orientation quadrupole field applied
 Nucleus-field energy     =    -0.0000000012 hartrees
 length of FILE_MO_COEFS: 0 
 Guess from superposition of atomic densities
 Warning:  Energy on first SCF cycle will be non-variational
 A restricted hybrid HF-DFT SCF calculation will be
 performed using Relaxed Constraint Minimization + Pulay DIIS
 Exchange:     0.2000 Hartree-Fock + 0.0800 Slater + 0.7200 B88
 Correlation:  0.1900 VWN1RPA + 0.8100 LYP
 Using SG-1 standard quadrature grid
 SCF converges when DIIS error is below 1.0E-06
 in ParallelAOLoop for JobNumber: 22 JobType: 22 
 ---------------------------------------
  Cycle       Energy         DIIS Error
 ---------------------------------------
    1    -165.6367055703      8.40E-02
 in ParallelAOLoop for JobNumber: 22 JobType: 22 
    2    -165.1585494822      1.18E-02
 in ParallelAOLoop for JobNumber: 22 JobType: 22 
    3    -165.2058187708      2.00E-03
 in ParallelAOLoop for JobNumber: 22 JobType: 22 
    4    -165.2649857445      9.88E-04 Done RCA. Switching to DIIS
 in ParallelAOLoop for JobNumber: 22 JobType: 22 
    5    -165.2653037876      8.53E-04
 in ParallelAOLoop for JobNumber: 22 JobType: 22 
    6    -165.2659872312      6.39E-05
 in ParallelAOLoop for JobNumber: 22 JobType: 22 
    7    -165.2659890123      3.74E-05
 in ParallelAOLoop for JobNumber: 22 JobType: 22 
    8    -165.2659899901      2.51E-06
 in ParallelAOLoop for JobNumber: 22 JobType: 22 
    9    -165.2659899950      2.86E-07 Convergence criterion met
 ---------------------------------------
 SCF time:  CPU 13.74 s  wall 13.63 s
 SCF   energy in the final basis set = -165.2659899950
 Total energy in the final basis set = -165.2659899950
 No wavefunction analysis requested
 Calculating analytic gradient of the SCF energy
 in ParallelAOLoop for JobNumber: 111 JobType: 11 
 DoParallel is ON (aoloop_n) 
 in ParallelAOLoop for JobNumber: 122 JobType: 22 
 Gradient of SCF Energy
            1           2           3           4           5           6
    1   0.0009019  -0.0005455   0.0004435  -0.0003413   0.0007528  -0.0006279
    2  -0.0007846  -0.0002056  -0.0000342  -0.0016901   0.0009894  -0.0004058
    3   0.0014336  -0.0001823   0.0002228   0.0008536  -0.0007577  -0.0005148
            7           8           9          10          11          12
    1  -0.0006330   0.0005332  -0.0005910  -0.0001190   0.0002138   0.0001136
    2   0.0008274  -0.0008822   0.0004543   0.0005561  -0.0004392   0.0011295
    3   0.0006147   0.0005386  -0.0001828   0.0002153  -0.0000120   0.0002327
           13          14
    1  -0.0005761   0.0004750
    2   0.0011181  -0.0006331
    3  -0.0010422  -0.0014195
 Max gradient component =       1.690E-03
 RMS gradient           =       7.141E-04
 Gradient time:  CPU 3.33 s  wall 3.33 s
 Geometry Optimization Parameters
   NAtoms,    NIC,     NZ,  NCons,   NDum,   NFix, NCnnct, MaxDiis
       14     125       0       0       0       0       0       0


** GEOMETRY OPTIMIZATION IN DELOCALIZED INTERNAL COORDINATES **
   Searching for a Minimum

   Optimization Cycle:   1

                       Coordinates (Angstroms)
     ATOM                X               Y               Z
      1  N         0.7410120000   -1.6979920000    1.6929890000
      2  B         0.7413550000    1.1828480000   -0.8947360000
      3  B        -1.0116870000    0.4968450000   -1.2546470000
      4  N        -0.2911310000    0.6053070000    0.1154440000
      5  H         0.0881450000   -2.2697160000    2.2233940000
      6  H         1.4693900000   -1.4046290000    2.3401500000
      7  H         1.1863500000   -2.3150130000    1.0173720000
      8  H         0.9411030000    2.3578130000   -0.7912700000
      9  H         1.6565280000    0.4477340000   -1.1274980000
     10  H        -0.0397340000    1.0879320000   -1.9837080000
     11  H        -1.9376060000    1.2428890000   -1.3899640000
     12  H        -1.0726100000   -0.6114420000   -1.6974880000
     13  H        -0.0141350000   -0.2498810000    0.6187040000
     14  H        -0.6879350000    1.2847690000    0.7521970000
   Point Group: c1    Number of degrees of freedom:    36


   Energy is   -165.265989995


 Attempting to Generate Delocalized Internal Coordinates

 36 Hessian modes will be used to form the next step
  Hessian Eigenvalues:
     0.002823    0.009535    0.019096    0.020040    0.026683    0.026986
     0.028326    0.030275    0.045487    0.045676    0.046559    0.058350
     0.059033    0.076050    0.082204    0.088104    0.088820    0.138527
     0.160000    0.160003    0.160010    0.160486    0.162729    0.186905
     0.193041    0.240038    0.242798    0.249038    0.249071    0.249369
     0.250309    0.427353    0.447201    0.447308    0.448044    0.456030

 Minimum Search - Taking Simple RFO Step
 Searching for Lamda that Minimizes Along All modes
 Value Taken    Lamda =  -0.00021145
 Step Taken.  Stepsize is  0.104211

                             Maximum     Tolerance    Cnvgd?
         Gradient           0.001810      0.000300      NO
         Displacement       0.039257      0.001200      NO
         Energy change     *********      0.000001      NO


 New Cartesian Coordinates Obtained by Inverse Iteration

 Displacement from previous Coordinates is:  0.143192
 ----------------------------------------------------------------
             Standard Nuclear Orientation (Angstroms)
    I     Atom           X                Y                Z
 ----------------------------------------------------------------
    1      N       0.7340151281    -1.7023885474     1.6836349427
    2      B       0.7428474259     1.1935831232    -0.8961039675
    3      B      -1.0075928197     0.4906759389    -1.2446519843
    4      N      -0.2843031380     0.6198002205     0.1232913404
    5      H       0.0779951102    -2.2773150641     2.2099299595
    6      H       1.4633512916    -1.4161729563     2.3345615728
    7      H       1.1791936810    -2.3170050946     1.0036287430
    8      H       0.9277225966     2.3746794638    -0.8205791082
    9      H       1.6672557702     0.4622862585    -1.1113494173
   10      H      -0.0344898113     1.0653438597    -1.9853331837
   11      H      -1.9349258903     1.2340090913    -1.3926689341
   12      H      -1.0674953740    -0.6282732801    -1.6668798281
   13      H      -0.0113403766    -0.2414866499     0.6224456486
   14      H      -0.6831885936     1.2997276363     0.7610132162
 ----------------------------------------------------------------
 Nuclear Repulsion Energy =   118.5963969880 hartrees
 There are       17 alpha and       17 beta electrons
 Applying Cartesian multipole field
    Component          Value
    ---------          -----
     (2,0,0)        1.00000E-11
     (0,2,0)        2.00000E-11
     (0,0,2)       -3.00000E-11
 Nucleus-field energy     =    -0.0000000011 hartrees
 length of FILE_MO_COEFS: 12960 
 Requested basis set is 6-31G(d)
 There are 36 shells and 80 basis functions
 in ParallelAOLoop for JobNumber:  2 JobType:  2 
 A cutoff of  1.0D-10 yielded    621 shell pairs
 There are      3238 function pairs
 in ParallelAOLoop for JobNumber: 11 JobType: 11 
 DoParallel is ON (aoloop_n) 
 Smallest overlap matrix eigenvalue = 7.53E-03
 Guess MOs from SCF MO coefficient file
 Reading MOs from coefficient file
 Reading MOs from coefficient file
 A restricted hybrid HF-DFT SCF calculation will be
 performed using Relaxed Constraint Minimization + Pulay DIIS
 Exchange:     0.2000 Hartree-Fock + 0.0800 Slater + 0.7200 B88
 Correlation:  0.1900 VWN1RPA + 0.8100 LYP
 Using SG-1 standard quadrature grid
 SCF converges when DIIS error is below 1.0E-06
 Geometry optimization detected.  Setting ReadMinima to 0
 Setting SaveMinima to 0
 in ParallelAOLoop for JobNumber: 22 JobType: 22 
 Inaccurate integrated density:
   Number of electrons =    34
   Numerical integral  =    33.993160085662
   Relative error      =    -0.0201173951 %
 Inaccurate integrated density:
   Number of electrons =    34
   Numerical integral  =    33.993160085662
   Relative error      =    -0.0201173951 %
 ---------------------------------------
  Cycle       Energy         DIIS Error
 ---------------------------------------
    1    -165.2611953961      4.20E-04 Done RCA. Switching to DIIS
 in ParallelAOLoop for JobNumber: 22 JobType: 22 
    2    -165.2661441675      4.76E-05
 in ParallelAOLoop for JobNumber: 22 JobType: 22 
    3    -165.2661467114      3.67E-05
 in ParallelAOLoop for JobNumber: 22 JobType: 22 
    4    -165.2661477776      1.29E-05
 in ParallelAOLoop for JobNumber: 22 JobType: 22 
    5    -165.2661478778      5.12E-06
 in ParallelAOLoop for JobNumber: 22 JobType: 22 
    6    -165.2661478974      6.60E-07 Convergence criterion met
 ---------------------------------------
 SCF time:  CPU 8.24 s  wall 8.14 s
 SCF   energy in the final basis set = -165.2661478974
 Total energy in the final basis set = -165.2661478974
 No wavefunction analysis requested
 Calculating analytic gradient of the SCF energy
 in ParallelAOLoop for JobNumber: 111 JobType: 11 
 DoParallel is ON (aoloop_n) 
 in ParallelAOLoop for JobNumber: 122 JobType: 22 
 Gradient of SCF Energy
            1           2           3           4           5           6
    1   0.0007020  -0.0007587   0.0004298   0.0000729  -0.0001629  -0.0000069
    2   0.0003715   0.0004249   0.0002609  -0.0012848   0.0002044  -0.0001380
    3   0.0010186  -0.0003374   0.0004772   0.0003602  -0.0000329  -0.0000091
            7           8           9          10          11          12
    1  -0.0001104   0.0006836  -0.0001742   0.0000865  -0.0001460   0.0001730
    2   0.0001481   0.0000008  -0.0001554   0.0005447  -0.0001394   0.0001133
    3  -0.0001519   0.0000679   0.0000123   0.0001389  -0.0000400  -0.0000432
           13          14
    1  -0.0007998   0.0000110
    2  -0.0008066   0.0004558
    3  -0.0011612  -0.0002995
 Max gradient component =       1.285E-03
 RMS gradient           =       4.584E-04
 Gradient time:  CPU 3.30 s  wall 3.29 s
 Geometry Optimization Parameters
   NAtoms,    NIC,     NZ,  NCons,   NDum,   NFix, NCnnct, MaxDiis
       14     125       0       0       0       0       0       0

 Cartesian Hessian Update
 Hessian Updated using BFGS Update


** GEOMETRY OPTIMIZATION IN DELOCALIZED INTERNAL COORDINATES **
   Searching for a Minimum

   Optimization Cycle:   2

                       Coordinates (Angstroms)
     ATOM                X               Y               Z
      1  N         0.7340151281   -1.7023885474    1.6836349427
      2  B         0.7428474259    1.1935831232   -0.8961039675
      3  B        -1.0075928197    0.4906759389   -1.2446519843
      4  N        -0.2843031380    0.6198002205    0.1232913404
      5  H         0.0779951102   -2.2773150641    2.2099299595
      6  H         1.4633512916   -1.4161729563    2.3345615728
      7  H         1.1791936810   -2.3170050946    1.0036287430
      8  H         0.9277225966    2.3746794638   -0.8205791082
      9  H         1.6672557702    0.4622862585   -1.1113494173
     10  H        -0.0344898113    1.0653438597   -1.9853331837
     11  H        -1.9349258903    1.2340090913   -1.3926689341
     12  H        -1.0674953740   -0.6282732801   -1.6668798281
     13  H        -0.0113403766   -0.2414866499    0.6224456486
     14  H        -0.6831885936    1.2997276363    0.7610132162
   Point Group: c1    Number of degrees of freedom:    36


   Energy is   -165.266147897

 Hessian Updated using BFGS Update

 36 Hessian modes will be used to form the next step
  Hessian Eigenvalues:
     0.002761    0.005671    0.018008    0.020073    0.025186    0.026709
     0.027068    0.028809    0.044949    0.045504    0.046572    0.058935
     0.058997    0.076541    0.083333    0.087577    0.088771    0.137999
     0.157768    0.160005    0.160013    0.160674    0.162670    0.183856
     0.187351    0.240404    0.242884    0.249025    0.249158    0.249766
     0.262083    0.431393    0.447267    0.447630    0.451948    0.493868

 Minimum Search - Taking Simple RFO Step
 Searching for Lamda that Minimizes Along All modes
 Value Taken    Lamda =  -0.00017682
 Step Taken.  Stepsize is  0.160394

                             Maximum     Tolerance    Cnvgd?
         Gradient           0.000712      0.000300      NO
         Displacement       0.069044      0.001200      NO
         Energy change     -0.000158      0.000001      NO


 New Cartesian Coordinates Obtained by Inverse Iteration

 Displacement from previous Coordinates is:  0.204323
 ----------------------------------------------------------------
             Standard Nuclear Orientation (Angstroms)
    I     Atom           X                Y                Z
 ----------------------------------------------------------------
    1      N       0.7235437465    -1.7053509412     1.6671409761
    2      B       0.7457884612     1.2041950509    -0.8966671885
    3      B      -1.0020493522     0.4815850063    -1.2294572571
    4      N      -0.2744287568     0.6404935839     0.1349835496
    5      H       0.0650780242    -2.2874952319     2.1837114200
    6      H       1.4500662549    -1.4282811491     2.3258816887
    7      H       1.1726551735    -2.3135449026     0.9830813332
    8      H       0.9059471225     2.3907462943    -0.8563486562
    9      H       1.6834605972     0.4824121418    -1.0895040186
   10      H      -0.0254650226     1.0273669233    -1.9857642136
   11      H      -1.9272777185     1.2236588844    -1.3970149563
   12      H      -1.0651327709    -0.6499882544    -1.6201398715
   13      H      -0.0066104785    -0.2270469231     0.6279389821
   14      H      -0.6765302805     1.3187135173     0.7730972122
 ----------------------------------------------------------------
 Nuclear Repulsion Energy =   118.6479137967 hartrees
 There are       17 alpha and       17 beta electrons
 Applying Cartesian multipole field
    Component          Value
    ---------          -----
     (2,0,0)        1.00000E-11
     (0,2,0)        2.00000E-11
     (0,0,2)       -3.00000E-11
 Nucleus-field energy     =    -0.0000000010 hartrees
 length of FILE_MO_COEFS: 12960 
 Requested basis set is 6-31G(d)
 There are 36 shells and 80 basis functions
 in ParallelAOLoop for JobNumber:  2 JobType:  2 
 A cutoff of  1.0D-10 yielded    622 shell pairs
 There are      3239 function pairs
 in ParallelAOLoop for JobNumber: 11 JobType: 11 
 DoParallel is ON (aoloop_n) 
 Smallest overlap matrix eigenvalue = 7.54E-03
 Guess MOs from SCF MO coefficient file
 Reading MOs from coefficient file
 Reading MOs from coefficient file
 A restricted hybrid HF-DFT SCF calculation will be
 performed using Relaxed Constraint Minimization + Pulay DIIS
 Exchange:     0.2000 Hartree-Fock + 0.0800 Slater + 0.7200 B88
 Correlation:  0.1900 VWN1RPA + 0.8100 LYP
 Using SG-1 standard quadrature grid
 SCF converges when DIIS error is below 1.0E-06
 Geometry optimization detected.  Setting ReadMinima to 0
 Setting SaveMinima to 0
 in ParallelAOLoop for JobNumber: 22 JobType: 22 
 Inaccurate integrated density:
   Number of electrons =    34
   Numerical integral  =    33.996129208065
   Relative error      =    -0.0113846822 %
 Inaccurate integrated density:
   Number of electrons =    34
   Numerical integral  =    33.996129208065
   Relative error      =    -0.0113846822 %
 ---------------------------------------
  Cycle       Energy         DIIS Error
 ---------------------------------------
    1    -165.2633915011      5.97E-04 Done RCA. Switching to DIIS
 in ParallelAOLoop for JobNumber: 22 JobType: 22 
    2    -165.2662524852      6.71E-05
 in ParallelAOLoop for JobNumber: 22 JobType: 22 
    3    -165.2662577338      4.88E-05
 in ParallelAOLoop for JobNumber: 22 JobType: 22 
    4    -165.2662596510      1.62E-05
 in ParallelAOLoop for JobNumber: 22 JobType: 22 
    5    -165.2662598143      7.59E-06
 in ParallelAOLoop for JobNumber: 22 JobType: 22 
    6    -165.2662598561      9.21E-07 Convergence criterion met
 ---------------------------------------
 SCF time:  CPU 8.41 s  wall 8.33 s
 SCF   energy in the final basis set = -165.2662598561
 Total energy in the final basis set = -165.2662598561
 No wavefunction analysis requested
 Calculating analytic gradient of the SCF energy
 in ParallelAOLoop for JobNumber: 111 JobType: 11 
 DoParallel is ON (aoloop_n) 
 in ParallelAOLoop for JobNumber: 122 JobType: 22 
 Gradient of SCF Energy
            1           2           3           4           5           6
    1   0.0004343  -0.0003629   0.0000227   0.0006131  -0.0003812   0.0002211
    2   0.0010936   0.0008329   0.0001037   0.0002827  -0.0001882  -0.0000913
    3   0.0006942  -0.0004353   0.0004802   0.0010133   0.0002361   0.0001930
            7           8           9          10          11          12
    1   0.0000971   0.0004573   0.0000312   0.0002253  -0.0002159   0.0002281
    2  -0.0001918   0.0002255  -0.0004509   0.0003332  -0.0000164  -0.0003935
    3  -0.0003387  -0.0001900   0.0001426   0.0000578  -0.0001038  -0.0001091
           13          14
    1  -0.0012162  -0.0001540
    2  -0.0020885   0.0005489
    3  -0.0019579   0.0003176
 Max gradient component =       2.088E-03
 RMS gradient           =       6.203E-04
 Gradient time:  CPU 3.27 s  wall 3.28 s
 Geometry Optimization Parameters
   NAtoms,    NIC,     NZ,  NCons,   NDum,   NFix, NCnnct, MaxDiis
       14     125       0       0       0       0       0       0

 Cartesian Hessian Update
 Hessian Updated using BFGS Update


** GEOMETRY OPTIMIZATION IN DELOCALIZED INTERNAL COORDINATES **
   Searching for a Minimum

   Optimization Cycle:   3

                       Coordinates (Angstroms)
     ATOM                X               Y               Z
      1  N         0.7235437465   -1.7053509412    1.6671409761
      2  B         0.7457884612    1.2041950509   -0.8966671885
      3  B        -1.0020493522    0.4815850063   -1.2294572571
      4  N        -0.2744287568    0.6404935839    0.1349835496
      5  H         0.0650780242   -2.2874952319    2.1837114200
      6  H         1.4500662549   -1.4282811491    2.3258816887
      7  H         1.1726551735   -2.3135449026    0.9830813332
      8  H         0.9059471225    2.3907462943   -0.8563486562
      9  H         1.6834605972    0.4824121418   -1.0895040186
     10  H        -0.0254650226    1.0273669233   -1.9857642136
     11  H        -1.9272777185    1.2236588844   -1.3970149563
     12  H        -1.0651327709   -0.6499882544   -1.6201398715
     13  H        -0.0066104785   -0.2270469231    0.6279389821
     14  H        -0.6765302805    1.3187135173    0.7730972122
   Point Group: c1    Number of degrees of freedom:    36


   Energy is   -165.266259856

 Hessian Updated using BFGS Update

 36 Hessian modes will be used to form the next step
  Hessian Eigenvalues:
     0.002603    0.004488    0.018166    0.020488    0.025500    0.026772
     0.027043    0.028904    0.044222    0.045510    0.046554    0.058859
     0.058987    0.076682    0.082897    0.088506    0.088828    0.138319
     0.154387    0.160005    0.160191    0.160696    0.162595    0.178279
     0.187198    0.239786    0.243011    0.249054    0.249256    0.249873
     0.263932    0.431640    0.447266    0.447637    0.452158    0.502799

 Minimum Search - Taking Simple RFO Step
 Searching for Lamda that Minimizes Along All modes
 Value Taken    Lamda =  -0.00005166
 Step Taken.  Stepsize is  0.087220

                             Maximum     Tolerance    Cnvgd?
         Gradient           0.000835      0.000300      NO
         Displacement       0.043303      0.001200      NO
         Energy change     -0.000112      0.000001      NO


 New Cartesian Coordinates Obtained by Inverse Iteration

 Displacement from previous Coordinates is:  0.094240
 ----------------------------------------------------------------
             Standard Nuclear Orientation (Angstroms)
    I     Atom           X                Y                Z
 ----------------------------------------------------------------
    1      N       0.7192346802    -1.7061278739     1.6591580056
    2      B       0.7472514622     1.2061949655    -0.8963994327
    3      B      -1.0002006117     0.4782472708    -1.2231088381
    4      N      -0.2701859639     0.6488144853     0.1398334587
    5      H       0.0601766327    -2.2938577225     2.1683542651
    6      H       1.4408701889    -1.4310577893     2.3240257050
    7      H       1.1746053273    -2.3089092513     0.9746084806
    8      H       0.8939575921     2.3945451240    -0.8699172340
    9      H       1.6916963471     0.4913356483    -1.0804490403
   10      H      -0.0205134049     1.0066257375    -1.9857907013
   11      H      -1.9214724885     1.2229622366    -1.3989261386
   12      H      -1.0695313298    -0.6577026055    -1.5992306918
   13      H      -0.0034874884    -0.2198628053     0.6313615290
   14      H      -0.6733559433     1.3262565797     0.7774196328
 ----------------------------------------------------------------
 Nuclear Repulsion Energy =   118.7063696513 hartrees
 There are       17 alpha and       17 beta electrons
 Applying Cartesian multipole field
    Component          Value
    ---------          -----
     (2,0,0)        1.00000E-11
     (0,2,0)        2.00000E-11
     (0,0,2)       -3.00000E-11
 Nucleus-field energy     =    -0.0000000009 hartrees
 length of FILE_MO_COEFS: 12960 
 Requested basis set is 6-31G(d)
 There are 36 shells and 80 basis functions
 in ParallelAOLoop for JobNumber:  2 JobType:  2 
 A cutoff of  1.0D-10 yielded    622 shell pairs
 There are      3239 function pairs
 in ParallelAOLoop for JobNumber: 11 JobType: 11 
 DoParallel is ON (aoloop_n) 
 Smallest overlap matrix eigenvalue = 7.54E-03
 Guess MOs from SCF MO coefficient file
 Reading MOs from coefficient file
 Reading MOs from coefficient file
 A restricted hybrid HF-DFT SCF calculation will be
 performed using Relaxed Constraint Minimization + Pulay DIIS
 Exchange:     0.2000 Hartree-Fock + 0.0800 Slater + 0.7200 B88
 Correlation:  0.1900 VWN1RPA + 0.8100 LYP
 Using SG-1 standard quadrature grid
 SCF converges when DIIS error is below 1.0E-06
 Geometry optimization detected.  Setting ReadMinima to 0
 Setting SaveMinima to 0
 in ParallelAOLoop for JobNumber: 22 JobType: 22 
 ---------------------------------------
  Cycle       Energy         DIIS Error
 ---------------------------------------
    1    -165.2665442056      2.84E-04 Done RCA. Switching to DIIS
 in ParallelAOLoop for JobNumber: 22 JobType: 22 
    2    -165.2662968233      2.86E-05
 in ParallelAOLoop for JobNumber: 22 JobType: 22 
    3    -165.2662980826      1.58E-05
 in ParallelAOLoop for JobNumber: 22 JobType: 22 
    4    -165.2662982780      6.96E-06
 in ParallelAOLoop for JobNumber: 22 JobType: 22 
    5    -165.2662983163      2.51E-06
 in ParallelAOLoop for JobNumber: 22 JobType: 22 
    6    -165.2662983206      5.14E-07 Convergence criterion met
 ---------------------------------------
 SCF time:  CPU 8.29 s  wall 8.18 s
 SCF   energy in the final basis set = -165.2662983206
 Total energy in the final basis set = -165.2662983206
 No wavefunction analysis requested
 Calculating analytic gradient of the SCF energy
 in ParallelAOLoop for JobNumber: 111 JobType: 11 
 DoParallel is ON (aoloop_n) 
 in ParallelAOLoop for JobNumber: 122 JobType: 22 
 Gradient of SCF Energy
            1           2           3           4           5           6
    1   0.0002972   0.0000103  -0.0002071   0.0007912  -0.0002265   0.0001592
    2   0.0010831   0.0005240  -0.0000588   0.0012731  -0.0001715  -0.0001081
    3   0.0005876  -0.0003334   0.0002751   0.0014481   0.0001940   0.0001519
            7           8           9          10          11          12
    1   0.0000764   0.0001812   0.0000023   0.0001929  -0.0001270   0.0002037
    2  -0.0001701   0.0001176  -0.0003287   0.0001345  -0.0000295  -0.0002842
    3  -0.0002103  -0.0000958   0.0001124   0.0000118  -0.0001244  -0.0000423
           13          14
    1  -0.0012506  -0.0001033
    2  -0.0021583   0.0001769
    3  -0.0022789   0.0003042
 Max gradient component =       2.279E-03
 RMS gradient           =       6.665E-04
 Gradient time:  CPU 3.21 s  wall 3.21 s
 Geometry Optimization Parameters
   NAtoms,    NIC,     NZ,  NCons,   NDum,   NFix, NCnnct, MaxDiis
       14     125       0       0       0       0       0       0

 Cartesian Hessian Update
 Hessian Updated using BFGS Update


** GEOMETRY OPTIMIZATION IN DELOCALIZED INTERNAL COORDINATES **
   Searching for a Minimum

   Optimization Cycle:   4

                       Coordinates (Angstroms)
     ATOM                X               Y               Z
      1  N         0.7192346802   -1.7061278739    1.6591580056
      2  B         0.7472514622    1.2061949655   -0.8963994327
      3  B        -1.0002006117    0.4782472708   -1.2231088381
      4  N        -0.2701859639    0.6488144853    0.1398334587
      5  H         0.0601766327   -2.2938577225    2.1683542651
      6  H         1.4408701889   -1.4310577893    2.3240257050
      7  H         1.1746053273   -2.3089092513    0.9746084806
      8  H         0.8939575921    2.3945451240   -0.8699172340
      9  H         1.6916963471    0.4913356483   -1.0804490403
     10  H        -0.0205134049    1.0066257375   -1.9857907013
     11  H        -1.9214724885    1.2229622366   -1.3989261386
     12  H        -1.0695313298   -0.6577026055   -1.5992306918
     13  H        -0.0034874884   -0.2198628053    0.6313615290
     14  H        -0.6733559433    1.3262565797    0.7774196328
   Point Group: c1    Number of degrees of freedom:    36


   Energy is   -165.266298321

 Hessian Updated using BFGS Update

 36 Hessian modes will be used to form the next step
  Hessian Eigenvalues:
     0.002169    0.004029    0.018696    0.020251    0.026131    0.026969
     0.027224    0.029397    0.042750    0.045517    0.046529    0.057948
     0.059001    0.071952    0.077259    0.088194    0.088846    0.131773
     0.138728    0.160006    0.160300    0.160475    0.162253    0.167926
     0.186938    0.239593    0.243146    0.249042    0.249149    0.249868
     0.258442    0.431274    0.447264    0.447632    0.452038    0.483401

 Minimum Search - Taking Simple RFO Step
 Searching for Lamda that Minimizes Along All modes
 Value Taken    Lamda =  -0.00005771
 Step Taken.  Stepsize is  0.103045

                             Maximum     Tolerance    Cnvgd?
         Gradient           0.000784      0.000300      NO
         Displacement       0.054788      0.001200      NO
         Energy change     -0.000038      0.000001      NO


 New Cartesian Coordinates Obtained by Inverse Iteration

 Displacement from previous Coordinates is:  0.098902
 ----------------------------------------------------------------
             Standard Nuclear Orientation (Angstroms)
    I     Atom           X                Y                Z
 ----------------------------------------------------------------
    1      N       0.7156340645    -1.7073890362     1.6518079775
    2      B       0.7484994284     1.2062128503    -0.8959828821
    3      B      -0.9989871288     0.4758164427    -1.2178139978
    4      N      -0.2662052078     0.6551767558     0.1437980010
    5      H       0.0559623150    -2.3027509314     2.1505161503
    6      H       1.4286818253    -1.4320068997     2.3254945728
    7      H       1.1816954430    -2.3023580541     0.9680922310
    8      H       0.8800079089     2.3961962566    -0.8824378895
    9      H       1.7008403615     0.5007467105    -1.0725855092
   10      H      -0.0152670223     0.9837129580    -1.9860410873
   11      H      -1.9137495929     1.2265480454    -1.3996224924
   12      H      -1.0794513859    -0.6631919696    -1.5806211956
   13      H       0.0010421692    -0.2123903142     0.6366529897
   14      H      -0.6696581783     1.3331411858     0.7796821315
 ----------------------------------------------------------------
 Nuclear Repulsion Energy =   118.7737331687 hartrees
 There are       17 alpha and       17 beta electrons
 Applying Cartesian multipole field
    Component          Value
    ---------          -----
     (2,0,0)        1.00000E-11
     (0,2,0)        2.00000E-11
     (0,0,2)       -3.00000E-11
 Nucleus-field energy     =    -0.0000000009 hartrees
 length of FILE_MO_COEFS: 12960 
 Requested basis set is 6-31G(d)
 There are 36 shells and 80 basis functions
 in ParallelAOLoop for JobNumber:  2 JobType:  2 
 A cutoff of  1.0D-10 yielded    622 shell pairs
 There are      3239 function pairs
 in ParallelAOLoop for JobNumber: 11 JobType: 11 
 DoParallel is ON (aoloop_n) 
 Smallest overlap matrix eigenvalue = 7.53E-03
 Guess MOs from SCF MO coefficient file
 Reading MOs from coefficient file
 Reading MOs from coefficient file
 A restricted hybrid HF-DFT SCF calculation will be
 performed using Relaxed Constraint Minimization + Pulay DIIS
 Exchange:     0.2000 Hartree-Fock + 0.0800 Slater + 0.7200 B88
 Correlation:  0.1900 VWN1RPA + 0.8100 LYP
 Using SG-1 standard quadrature grid
 SCF converges when DIIS error is below 1.0E-06
 Geometry optimization detected.  Setting ReadMinima to 0
 Setting SaveMinima to 0
 in ParallelAOLoop for JobNumber: 22 JobType: 22 
 ---------------------------------------
  Cycle       Energy         DIIS Error
 ---------------------------------------
    1    -165.2671997186      3.05E-04 Done RCA. Switching to DIIS
 in ParallelAOLoop for JobNumber: 22 JobType: 22 
    2    -165.2663372300      3.06E-05
 in ParallelAOLoop for JobNumber: 22 JobType: 22 
    3    -165.2663388365      1.27E-05
 in ParallelAOLoop for JobNumber: 22 JobType: 22 
    4    -165.2663389670      6.37E-06
 in ParallelAOLoop for JobNumber: 22 JobType: 22 
    5    -165.2663390063      1.19E-06
 in ParallelAOLoop for JobNumber: 22 JobType: 22 
    6    -165.2663390076      3.83E-07 Convergence criterion met
 ---------------------------------------
 SCF time:  CPU 8.13 s  wall 8.17 s
 SCF   energy in the final basis set = -165.2663390076
 Total energy in the final basis set = -165.2663390076
 No wavefunction analysis requested
 Calculating analytic gradient of the SCF energy
 in ParallelAOLoop for JobNumber: 111 JobType: 11 
 DoParallel is ON (aoloop_n) 
 in ParallelAOLoop for JobNumber: 122 JobType: 22 
 Gradient of SCF Energy
            1           2           3           4           5           6
    1   0.0001609   0.0003765  -0.0003470   0.0008618   0.0000336   0.0000194
    2   0.0007939  -0.0001107  -0.0001303   0.0020454  -0.0000490  -0.0000890
    3   0.0005111  -0.0000157  -0.0000869   0.0016598   0.0000689   0.0000346
            7           8           9          10          11          12
    1  -0.0000041  -0.0001747  -0.0000418   0.0000734   0.0000162   0.0001155
    2  -0.0000545  -0.0000337  -0.0000465  -0.0001156  -0.0000531  -0.0000260
    3   0.0000114   0.0000639   0.0000222  -0.0000343  -0.0000912   0.0000398
           13          14
    1  -0.0011042   0.0000146
    2  -0.0018412  -0.0002898
    3  -0.0023337   0.0001503
 Max gradient component =       2.334E-03
 RMS gradient           =       6.756E-04
 Gradient time:  CPU 3.18 s  wall 3.18 s
 Geometry Optimization Parameters
   NAtoms,    NIC,     NZ,  NCons,   NDum,   NFix, NCnnct, MaxDiis
       14     125       0       0       0       0       0       0

 Cartesian Hessian Update
 Hessian Updated using BFGS Update


** GEOMETRY OPTIMIZATION IN DELOCALIZED INTERNAL COORDINATES **
   Searching for a Minimum

   Optimization Cycle:   5

                       Coordinates (Angstroms)
     ATOM                X               Y               Z
      1  N         0.7156340645   -1.7073890362    1.6518079775
      2  B         0.7484994284    1.2062128503   -0.8959828821
      3  B        -0.9989871288    0.4758164427   -1.2178139978
      4  N        -0.2662052078    0.6551767558    0.1437980010
      5  H         0.0559623150   -2.3027509314    2.1505161503
      6  H         1.4286818253   -1.4320068997    2.3254945728
      7  H         1.1816954430   -2.3023580541    0.9680922310
      8  H         0.8800079089    2.3961962566   -0.8824378895
      9  H         1.7008403615    0.5007467105   -1.0725855092
     10  H        -0.0152670223    0.9837129580   -1.9860410873
     11  H        -1.9137495929    1.2265480454   -1.3996224924
     12  H        -1.0794513859   -0.6631919696   -1.5806211956
     13  H         0.0010421692   -0.2123903142    0.6366529897
     14  H        -0.6696581783    1.3331411858    0.7796821315
   Point Group: c1    Number of degrees of freedom:    36


   Energy is   -165.266339008

 Hessian Updated using BFGS Update

 36 Hessian modes will be used to form the next step
  Hessian Eigenvalues:
     0.001956    0.004075    0.018762    0.020076    0.026172    0.026628
     0.027163    0.028914    0.040586    0.045513    0.046498    0.053546
     0.059026    0.061358    0.077195    0.087692    0.088805    0.113135
     0.138569    0.159966    0.160037    0.160480    0.162069    0.166069
     0.186893    0.241278    0.243275    0.249041    0.249231    0.249803
     0.263720    0.431411    0.447268    0.447627    0.451710    0.494044

 Minimum Search - Taking Simple RFO Step
 Searching for Lamda that Minimizes Along All modes
 Value Taken    Lamda =  -0.00004588
 Step Taken.  Stepsize is  0.082005

                             Maximum     Tolerance    Cnvgd?
         Gradient           0.000946      0.000300      NO
         Displacement       0.044105      0.001200      NO
         Energy change     -0.000041      0.000001      NO


 New Cartesian Coordinates Obtained by Inverse Iteration

 Displacement from previous Coordinates is:  0.073698
 ----------------------------------------------------------------
             Standard Nuclear Orientation (Angstroms)
    I     Atom           X                Y                Z
 ----------------------------------------------------------------
    1      N       0.7137422166    -1.7092331760     1.6477448349
    2      B       0.7489378361     1.2055794769    -0.8959919540
    3      B      -0.9983760622     0.4743697475    -1.2148604284
    4      N      -0.2636246196     0.6579246116     0.1458326781
    5      H       0.0529993859    -2.3109219479     2.1367529615
    6      H       1.4184498286    -1.4327297712     2.3294688541
    7      H       1.1897436935    -2.2971318418     0.9651558797
    8      H       0.8695904625     2.3966556838    -0.8914500154
    9      H       1.7075508607     0.5080730878    -1.0683366901
   10      H      -0.0120357090     0.9676394175    -1.9864438655
   11      H      -1.9075453126     1.2311608159    -1.3983772592
   12      H      -1.0892944731    -0.6658067737    -1.5702546188
   13      H       0.0057049369    -0.2064772547     0.6429353183
   14      H      -0.6667980443     1.3383619241     0.7787633049
 ----------------------------------------------------------------
 Nuclear Repulsion Energy =   118.8114511707 hartrees
 There are       17 alpha and       17 beta electrons
 Applying Cartesian multipole field
    Component          Value
    ---------          -----
     (2,0,0)        1.00000E-11
     (0,2,0)        2.00000E-11
     (0,0,2)       -3.00000E-11
 Nucleus-field energy     =    -0.0000000008 hartrees
 length of FILE_MO_COEFS: 12960 
 Requested basis set is 6-31G(d)
 There are 36 shells and 80 basis functions
 in ParallelAOLoop for JobNumber:  2 JobType:  2 
 A cutoff of  1.0D-10 yielded    622 shell pairs
 There are      3239 function pairs
 in ParallelAOLoop for JobNumber: 11 JobType: 11 
 DoParallel is ON (aoloop_n) 
 Smallest overlap matrix eigenvalue = 7.53E-03
 Guess MOs from SCF MO coefficient file
 Reading MOs from coefficient file
 Reading MOs from coefficient file
 A restricted hybrid HF-DFT SCF calculation will be
 performed using Relaxed Constraint Minimization + Pulay DIIS
 Exchange:     0.2000 Hartree-Fock + 0.0800 Slater + 0.7200 B88
 Correlation:  0.1900 VWN1RPA + 0.8100 LYP
 Using SG-1 standard quadrature grid
 SCF converges when DIIS error is below 1.0E-06
 Geometry optimization detected.  Setting ReadMinima to 0
 Setting SaveMinima to 0
 in ParallelAOLoop for JobNumber: 22 JobType: 22 
 ---------------------------------------
  Cycle       Energy         DIIS Error
 ---------------------------------------
    1    -165.2670824683      2.31E-04 Done RCA. Switching to DIIS
 in ParallelAOLoop for JobNumber: 22 JobType: 22 
    2    -165.2663716467      2.54E-05
 in ParallelAOLoop for JobNumber: 22 JobType: 22 
    3    -165.2663726805      9.98E-06
 in ParallelAOLoop for JobNumber: 22 JobType: 22 
    4    -165.2663727719      3.86E-06
 in ParallelAOLoop for JobNumber: 22 JobType: 22 
    5    -165.2663727843      1.50E-06
 in ParallelAOLoop for JobNumber: 22 JobType: 22 
    6    -165.2663727860      2.88E-07 Convergence criterion met
 ---------------------------------------
 SCF time:  CPU 8.50 s  wall 8.52 s
 SCF   energy in the final basis set = -165.2663727860
 Total energy in the final basis set = -165.2663727860
 No wavefunction analysis requested
 Calculating analytic gradient of the SCF energy
 in ParallelAOLoop for JobNumber: 111 JobType: 11 
 DoParallel is ON (aoloop_n) 
 in ParallelAOLoop for JobNumber: 122 JobType: 22 
 Gradient of SCF Energy
            1           2           3           4           5           6
    1   0.0000904   0.0004957  -0.0002809   0.0008038   0.0001951  -0.0000916
    2   0.0004300  -0.0006050  -0.0000443   0.0020387   0.0000557  -0.0000114
    3   0.0004778   0.0003551  -0.0003910   0.0014707  -0.0000259  -0.0000713
            7           8           9          10          11          12
    1  -0.0000655  -0.0003941  -0.0000228  -0.0000727   0.0001193  -0.0000046
    2   0.0000429  -0.0000997   0.0002092  -0.0002804  -0.0000348   0.0001575
    3   0.0001546   0.0001266  -0.0000577  -0.0000567  -0.0000118   0.0000682
           13          14
    1  -0.0008740   0.0001021
    2  -0.0013853  -0.0004730
    3  -0.0020485   0.0000098
 Max gradient component =       2.049E-03
 RMS gradient           =       6.156E-04
 Gradient time:  CPU 3.28 s  wall 3.28 s
 Geometry Optimization Parameters
   NAtoms,    NIC,     NZ,  NCons,   NDum,   NFix, NCnnct, MaxDiis
       14     125       0       0       0       0       0       0

 Cartesian Hessian Update
 Hessian Updated using BFGS Update


** GEOMETRY OPTIMIZATION IN DELOCALIZED INTERNAL COORDINATES **
   Searching for a Minimum

   Optimization Cycle:   6

                       Coordinates (Angstroms)
     ATOM                X               Y               Z
      1  N         0.7137422166   -1.7092331760    1.6477448349
      2  B         0.7489378361    1.2055794769   -0.8959919540
      3  B        -0.9983760622    0.4743697475   -1.2148604284
      4  N        -0.2636246196    0.6579246116    0.1458326781
      5  H         0.0529993859   -2.3109219479    2.1367529615
      6  H         1.4184498286   -1.4327297712    2.3294688541
      7  H         1.1897436935   -2.2971318418    0.9651558797
      8  H         0.8695904625    2.3966556838   -0.8914500154
      9  H         1.7075508607    0.5080730878   -1.0683366901
     10  H        -0.0120357090    0.9676394175   -1.9864438655
     11  H        -1.9075453126    1.2311608159   -1.3983772592
     12  H        -1.0892944731   -0.6658067737   -1.5702546188
     13  H         0.0057049369   -0.2064772547    0.6429353183
     14  H        -0.6667980443    1.3383619241    0.7787633049
   Point Group: c1    Number of degrees of freedom:    36


   Energy is   -165.266372786

 Hessian Updated using BFGS Update

 36 Hessian modes will be used to form the next step
  Hessian Eigenvalues:
     0.001917    0.004232    0.017885    0.019827    0.022479    0.026241
     0.027042    0.028132    0.034668    0.045466    0.046062    0.047050
     0.059025    0.059563    0.077190    0.087005    0.088771    0.102573
     0.138775    0.159474    0.160032    0.160500    0.162034    0.165413
     0.186897    0.241803    0.242458    0.249045    0.249341    0.249851
     0.266092    0.431522    0.447268    0.447630    0.451799    0.503427

 Minimum Search - Taking Simple RFO Step
 Searching for Lamda that Minimizes Along All modes
 Value Taken    Lamda =  -0.00005007
 Step Taken.  Stepsize is  0.074992

                             Maximum     Tolerance    Cnvgd?
         Gradient           0.000870      0.000300      NO
         Displacement       0.036638      0.001200      NO
         Energy change     -0.000034      0.000001      NO


 New Cartesian Coordinates Obtained by Inverse Iteration

 Displacement from previous Coordinates is:  0.066929
 ----------------------------------------------------------------
             Standard Nuclear Orientation (Angstroms)
    I     Atom           X                Y                Z
 ----------------------------------------------------------------
    1      N       0.7122911733    -1.7116571327     1.6448171537
    2      B       0.7488243205     1.2057194447    -0.8966586401
    3      B      -0.9974086144     0.4720315214    -1.2119949659
    4      N      -0.2614140424     0.6599959695     0.1475863140
    5      H       0.0492218770    -2.3185389677     2.1238156273
    6      H       1.4095684272    -1.4359677748     2.3343266175
    7      H       1.1964401439    -2.2926871279     0.9623210233
    8      H       0.8614503620     2.3976453499    -0.9005057677
    9      H       1.7129466833     0.5150754856    -1.0654313127
   10      H      -0.0102100838     0.9552763684    -1.9866511994
   11      H      -1.9026803588     1.2334291249    -1.3956899514
   12      H      -1.0967011045    -0.6688637367    -1.5623129733
   13      H       0.0113777402    -0.1991518416     0.6519693637
   14      H      -0.6646615235     1.3451573170     0.7753477109
 ----------------------------------------------------------------
 Nuclear Repulsion Energy =   118.8300915666 hartrees
 There are       17 alpha and       17 beta electrons
 Applying Cartesian multipole field
    Component          Value
    ---------          -----
     (2,0,0)        1.00000E-11
     (0,2,0)        2.00000E-11
     (0,0,2)       -3.00000E-11
 Nucleus-field energy     =    -0.0000000008 hartrees
 length of FILE_MO_COEFS: 12960 
 Requested basis set is 6-31G(d)
 There are 36 shells and 80 basis functions
 in ParallelAOLoop for JobNumber:  2 JobType:  2 
 A cutoff of  1.0D-10 yielded    622 shell pairs
 There are      3239 function pairs
 in ParallelAOLoop for JobNumber: 11 JobType: 11 
 DoParallel is ON (aoloop_n) 
 Smallest overlap matrix eigenvalue = 7.53E-03
 Guess MOs from SCF MO coefficient file
 Reading MOs from coefficient file
 Reading MOs from coefficient file
 A restricted hybrid HF-DFT SCF calculation will be
 performed using Relaxed Constraint Minimization + Pulay DIIS
 Exchange:     0.2000 Hartree-Fock + 0.0800 Slater + 0.7200 B88
 Correlation:  0.1900 VWN1RPA + 0.8100 LYP
 Using SG-1 standard quadrature grid
 SCF converges when DIIS error is below 1.0E-06
 Geometry optimization detected.  Setting ReadMinima to 0
 Setting SaveMinima to 0
 in ParallelAOLoop for JobNumber: 22 JobType: 22 
 ---------------------------------------
  Cycle       Energy         DIIS Error
 ---------------------------------------
    1    -165.2667519332      2.13E-04 Done RCA. Switching to DIIS
 in ParallelAOLoop for JobNumber: 22 JobType: 22 
    2    -165.2664089290      2.69E-05
 in ParallelAOLoop for JobNumber: 22 JobType: 22 
    3    -165.2664098552      1.29E-05
 in ParallelAOLoop for JobNumber: 22 JobType: 22 
    4    -165.2664100108      3.10E-06
 in ParallelAOLoop for JobNumber: 22 JobType: 22 
    5    -165.2664100196      1.06E-06
 in ParallelAOLoop for JobNumber: 22 JobType: 22 
    6    -165.2664100207      1.20E-07 Convergence criterion met
 ---------------------------------------
 SCF time:  CPU 8.26 s  wall 9.49 s
 SCF   energy in the final basis set = -165.2664100207
 Total energy in the final basis set = -165.2664100207
 No wavefunction analysis requested
 Calculating analytic gradient of the SCF energy
 in ParallelAOLoop for JobNumber: 111 JobType: 11 
 DoParallel is ON (aoloop_n) 
 in ParallelAOLoop for JobNumber: 122 JobType: 22 
 Gradient of SCF Energy
            1           2           3           4           5           6
    1   0.0000608   0.0004029  -0.0000466   0.0006597   0.0002439  -0.0001581
    2   0.0000632  -0.0008521   0.0001113   0.0013925   0.0001050   0.0001197
    3   0.0004482   0.0006721  -0.0005977   0.0010423  -0.0000715  -0.0001451
            7           8           9          10          11          12
    1  -0.0000882  -0.0004670   0.0000642  -0.0002230   0.0001843  -0.0001556
    2   0.0000909  -0.0000876   0.0004043  -0.0003606   0.0000378   0.0002373
    3   0.0002103   0.0000937  -0.0001075  -0.0000599   0.0000914   0.0000446
           13          14
    1  -0.0006160   0.0001385
    2  -0.0008870  -0.0003748
    3  -0.0015235  -0.0000974
 Max gradient component =       1.524E-03
 RMS gradient           =       4.869E-04
 Gradient time:  CPU 3.25 s  wall 3.25 s
 Geometry Optimization Parameters
   NAtoms,    NIC,     NZ,  NCons,   NDum,   NFix, NCnnct, MaxDiis
       14     125       0       0       0       0       0       0

 Cartesian Hessian Update
 Hessian Updated using BFGS Update


** GEOMETRY OPTIMIZATION IN DELOCALIZED INTERNAL COORDINATES **
   Searching for a Minimum

   Optimization Cycle:   7

                       Coordinates (Angstroms)
     ATOM                X               Y               Z
      1  N         0.7122911733   -1.7116571327    1.6448171537
      2  B         0.7488243205    1.2057194447   -0.8966586401
      3  B        -0.9974086144    0.4720315214   -1.2119949659
      4  N        -0.2614140424    0.6599959695    0.1475863140
      5  H         0.0492218770   -2.3185389677    2.1238156273
      6  H         1.4095684272   -1.4359677748    2.3343266175
      7  H         1.1964401439   -2.2926871279    0.9623210233
      8  H         0.8614503620    2.3976453499   -0.9005057677
      9  H         1.7129466833    0.5150754856   -1.0654313127
     10  H        -0.0102100838    0.9552763684   -1.9866511994
     11  H        -1.9026803588    1.2334291249   -1.3956899514
     12  H        -1.0967011045   -0.6688637367   -1.5623129733
     13  H         0.0113777402   -0.1991518416    0.6519693637
     14  H        -0.6646615235    1.3451573170    0.7753477109
   Point Group: c1    Number of degrees of freedom:    36


   Energy is   -165.266410021

 Hessian Updated using BFGS Update

 36 Hessian modes will be used to form the next step
  Hessian Eigenvalues:
     0.001949    0.004359    0.012336    0.019115    0.020550    0.026236
     0.027015    0.027869    0.031850    0.044783    0.045745    0.046758
     0.059053    0.059134    0.076890    0.085953    0.088745    0.098101
     0.139127    0.158580    0.160035    0.160533    0.162253    0.165492
     0.186901    0.240147    0.241871    0.249045    0.249304    0.249911
     0.262370    0.431474    0.447266    0.447637    0.452085    0.496713

 Minimum Search - Taking Simple RFO Step
 Searching for Lamda that Minimizes Along All modes
 Value Taken    Lamda =  -0.00006220
 Step Taken.  Stepsize is  0.079161

                             Maximum     Tolerance    Cnvgd?
         Gradient           0.000858      0.000300      NO
         Displacement       0.040701      0.001200      NO
         Energy change     -0.000037      0.000001      NO


 New Cartesian Coordinates Obtained by Inverse Iteration

 Displacement from previous Coordinates is:  0.080397
 ----------------------------------------------------------------
             Standard Nuclear Orientation (Angstroms)
    I     Atom           X                Y                Z
 ----------------------------------------------------------------
    1      N       0.7100870954    -1.7139992968     1.6407503063
    2      B       0.7484119466     1.2078040064    -0.8980545460
    3      B      -0.9950375225     0.4666660716    -1.2068740300
    4      N      -0.2588130419     0.6644888971     0.1507500880
    5      H       0.0424215577    -2.3244745100     2.1086418533
    6      H       1.4024342506    -1.4449237812     2.3377833019
    7      H       1.1983149949    -2.2881210065     0.9553855161
    8      H       0.8553934789     2.4003481621    -0.9120515091
    9      H       1.7173418623     0.5224357941    -1.0618290231
   10      H      -0.0093756059     0.9446626137    -1.9858395341
   11      H      -1.8996610147     1.2286795855    -1.3923621684
   12      H      -1.0977579294    -0.6758489962    -1.5511073688
   13      H       0.0188510099    -0.1870232756     0.6657053962
   14      H      -0.6635660820     1.3567697358     0.7700407178
 ----------------------------------------------------------------
 Nuclear Repulsion Energy =   118.8484697244 hartrees
 There are       17 alpha and       17 beta electrons
 Applying Cartesian multipole field
    Component          Value
    ---------          -----
     (2,0,0)        1.00000E-11
     (0,2,0)        2.00000E-11
     (0,0,2)       -3.00000E-11
 Nucleus-field energy     =    -0.0000000008 hartrees
 length of FILE_MO_COEFS: 12960 
 Requested basis set is 6-31G(d)
 There are 36 shells and 80 basis functions
 in ParallelAOLoop for JobNumber:  2 JobType:  2 
 A cutoff of  1.0D-10 yielded    622 shell pairs
 There are      3239 function pairs
 in ParallelAOLoop for JobNumber: 11 JobType: 11 
 DoParallel is ON (aoloop_n) 
 Smallest overlap matrix eigenvalue = 7.53E-03
 Guess MOs from SCF MO coefficient file
 Reading MOs from coefficient file
 Reading MOs from coefficient file
 A restricted hybrid HF-DFT SCF calculation will be
 performed using Relaxed Constraint Minimization + Pulay DIIS
 Exchange:     0.2000 Hartree-Fock + 0.0800 Slater + 0.7200 B88
 Correlation:  0.1900 VWN1RPA + 0.8100 LYP
 Using SG-1 standard quadrature grid
 SCF converges when DIIS error is below 1.0E-06
 Geometry optimization detected.  Setting ReadMinima to 0
 Setting SaveMinima to 0
 in ParallelAOLoop for JobNumber: 22 JobType: 22 
 ---------------------------------------
  Cycle       Energy         DIIS Error
 ---------------------------------------
    1    -165.2663590190      2.64E-04 Done RCA. Switching to DIIS
 in ParallelAOLoop for JobNumber: 22 JobType: 22 
    2    -165.2664561676      3.36E-05
 in ParallelAOLoop for JobNumber: 22 JobType: 22 
    3    -165.2664573071      1.89E-05
 in ParallelAOLoop for JobNumber: 22 JobType: 22 
    4    -165.2664576152      5.53E-06
 in ParallelAOLoop for JobNumber: 22 JobType: 22 
    5    -165.2664576376      2.65E-06
 in ParallelAOLoop for JobNumber: 22 JobType: 22 
    6    -165.2664576424      5.92E-07 Convergence criterion met
 ---------------------------------------
 SCF time:  CPU 8.19 s  wall 8.07 s
 SCF   energy in the final basis set = -165.2664576424
 Total energy in the final basis set = -165.2664576424
 No wavefunction analysis requested
 Calculating analytic gradient of the SCF energy
 in ParallelAOLoop for JobNumber: 111 JobType: 11 
 DoParallel is ON (aoloop_n) 
 in ParallelAOLoop for JobNumber: 122 JobType: 22 
 Gradient of SCF Energy
            1           2           3           4           5           6
    1   0.0000498   0.0001395   0.0002919   0.0004670   0.0001862  -0.0001738
    2  -0.0002385  -0.0007770   0.0002197   0.0003279   0.0000816   0.0002824
    3   0.0003833   0.0007976  -0.0006493   0.0005579  -0.0000653  -0.0001735
            7           8           9          10          11          12
    1  -0.0000659  -0.0003843   0.0001902  -0.0003329   0.0002134  -0.0003195
    2   0.0000718  -0.0000209   0.0004981  -0.0003444   0.0001596   0.0002150
    3   0.0001887   0.0000020  -0.0001116  -0.0000435   0.0001846  -0.0000217
           13          14
    1  -0.0003790   0.0001174
    2  -0.0004155  -0.0000598
    3  -0.0008710  -0.0001781
 Max gradient component =       8.710E-04
 RMS gradient           =       3.430E-04
 Gradient time:  CPU 3.24 s  wall 3.26 s
 Geometry Optimization Parameters
   NAtoms,    NIC,     NZ,  NCons,   NDum,   NFix, NCnnct, MaxDiis
       14     125       0       0       0       0       0       0

 Cartesian Hessian Update
 Hessian Updated using BFGS Update


** GEOMETRY OPTIMIZATION IN DELOCALIZED INTERNAL COORDINATES **
   Searching for a Minimum

   Optimization Cycle:   8

                       Coordinates (Angstroms)
     ATOM                X               Y               Z
      1  N         0.7100870954   -1.7139992968    1.6407503063
      2  B         0.7484119466    1.2078040064   -0.8980545460
      3  B        -0.9950375225    0.4666660716   -1.2068740300
      4  N        -0.2588130419    0.6644888971    0.1507500880
      5  H         0.0424215577   -2.3244745100    2.1086418533
      6  H         1.4024342506   -1.4449237812    2.3377833019
      7  H         1.1983149949   -2.2881210065    0.9553855161
      8  H         0.8553934789    2.4003481621   -0.9120515091
      9  H         1.7173418623    0.5224357941   -1.0618290231
     10  H        -0.0093756059    0.9446626137   -1.9858395341
     11  H        -1.8996610147    1.2286795855   -1.3923621684
     12  H        -1.0977579294   -0.6758489962   -1.5511073688
     13  H         0.0188510099   -0.1870232756    0.6657053962
     14  H        -0.6635660820    1.3567697358    0.7700407178
   Point Group: c1    Number of degrees of freedom:    36


   Energy is   -165.266457642

 Hessian Updated using BFGS Update

 36 Hessian modes will be used to form the next step
  Hessian Eigenvalues:
     0.001969    0.004411    0.006473    0.019206    0.020402    0.026247
     0.026995    0.027757    0.031507    0.044385    0.046125    0.047058
     0.058614    0.059271    0.076129    0.083753    0.088704    0.094065
     0.139178    0.156706    0.160035    0.160522    0.162451    0.163719
     0.186901    0.237627    0.241874    0.249044    0.249200    0.249882
     0.260059    0.431403    0.447269    0.447641    0.452163    0.490643

 Minimum Search - Taking Simple RFO Step
 Searching for Lamda that Minimizes Along All modes
 Value Taken    Lamda =  -0.00009590
 Step Taken.  Stepsize is  0.117398

                             Maximum     Tolerance    Cnvgd?
         Gradient           0.000914      0.000300      NO
         Displacement       0.051440      0.001200      NO
         Energy change     -0.000048      0.000001      NO


 New Cartesian Coordinates Obtained by Inverse Iteration

 Displacement from previous Coordinates is:  0.152079
 ----------------------------------------------------------------
             Standard Nuclear Orientation (Angstroms)
    I     Atom           X                Y                Z
 ----------------------------------------------------------------
    1      N       0.7051432666    -1.7151213597     1.6314519117
    2      B       0.7480034380     1.2132545295    -0.9001283728
    3      B      -0.9893257409     0.4543541919    -1.1952909678
    4      N      -0.2545689238     0.6763052402     0.1581907807
    5      H       0.0282408140    -2.3273363431     2.0838324794
    6      H       1.3965327346    -1.4657517280     2.3368308819
    7      H       1.1905316770    -2.2803427712     0.9366457596
    8      H       0.8501642219     2.4061205429    -0.9310925225
    9      H       1.7217901197     0.5318334583    -1.0538993871
   10      H      -0.0086521679     0.9310916602    -1.9823109721
   11      H      -1.8986774069     1.2092645956    -1.3888665083
   12      H      -1.0868439035    -0.6926553630    -1.5266935924
   13      H       0.0306024281    -0.1629805396     0.6895712997
   14      H      -0.6638955569     1.3794278861     0.7626982100
 ----------------------------------------------------------------
 Nuclear Repulsion Energy =   118.9067338114 hartrees
 There are       17 alpha and       17 beta electrons
 Applying Cartesian multipole field
    Component          Value
    ---------          -----
     (2,0,0)        1.00000E-11
     (0,2,0)        2.00000E-11
     (0,0,2)       -3.00000E-11
 Nucleus-field energy     =    -0.0000000007 hartrees
 length of FILE_MO_COEFS: 12960 
 Requested basis set is 6-31G(d)
 There are 36 shells and 80 basis functions
 in ParallelAOLoop for JobNumber:  2 JobType:  2 
 A cutoff of  1.0D-10 yielded    623 shell pairs
 There are      3245 function pairs
 in ParallelAOLoop for JobNumber: 11 JobType: 11 
 DoParallel is ON (aoloop_n) 
 Smallest overlap matrix eigenvalue = 7.54E-03
 Guess MOs from SCF MO coefficient file
 Reading MOs from coefficient file
 Reading MOs from coefficient file
 A restricted hybrid HF-DFT SCF calculation will be
 performed using Relaxed Constraint Minimization + Pulay DIIS
 Exchange:     0.2000 Hartree-Fock + 0.0800 Slater + 0.7200 B88
 Correlation:  0.1900 VWN1RPA + 0.8100 LYP
 Using SG-1 standard quadrature grid
 SCF converges when DIIS error is below 1.0E-06
 Geometry optimization detected.  Setting ReadMinima to 0
 Setting SaveMinima to 0
 in ParallelAOLoop for JobNumber: 22 JobType: 22 
 ---------------------------------------
  Cycle       Energy         DIIS Error
 ---------------------------------------
    1    -165.2657754282      5.11E-04 Done RCA. Switching to DIIS
 in ParallelAOLoop for JobNumber: 22 JobType: 22 
    2    -165.2665262162      5.75E-05
 in ParallelAOLoop for JobNumber: 22 JobType: 22 
    3    -165.2665293254      3.28E-05
 in ParallelAOLoop for JobNumber: 22 JobType: 22 
    4    -165.2665301297      1.40E-05
 in ParallelAOLoop for JobNumber: 22 JobType: 22 
    5    -165.2665302674      4.89E-06
 in ParallelAOLoop for JobNumber: 22 JobType: 22 
    6    -165.2665302830      1.03E-06
 in ParallelAOLoop for JobNumber: 22 JobType: 22 
    7    -165.2665302839      1.35E-07 Convergence criterion met
 ---------------------------------------
 SCF time:  CPU 9.58 s  wall 9.45 s
 SCF   energy in the final basis set = -165.2665302839
 Total energy in the final basis set = -165.2665302839
 No wavefunction analysis requested
 Calculating analytic gradient of the SCF energy
 in ParallelAOLoop for JobNumber: 111 JobType: 11 
 DoParallel is ON (aoloop_n) 
 in ParallelAOLoop for JobNumber: 122 JobType: 22 
 Gradient of SCF Energy
            1           2           3           4           5           6
    1   0.0000324  -0.0002808   0.0006883   0.0002308   0.0000328  -0.0001434
    2  -0.0004499  -0.0003490   0.0001795  -0.0010062  -0.0000230   0.0004705
    3   0.0002218   0.0006209  -0.0004921   0.0001038  -0.0000206  -0.0001532
            7           8           9          10          11          12
    1  -0.0000043  -0.0001425   0.0003212  -0.0003579   0.0002116  -0.0004850
    2  -0.0000303   0.0000739   0.0004630  -0.0002163   0.0003263   0.0001099
    3   0.0001116  -0.0001106  -0.0000614   0.0000004   0.0002365  -0.0001224
           13          14
    1  -0.0001457   0.0000423
    2   0.0000570   0.0003946
    3  -0.0000835  -0.0002513
 Max gradient component =       1.006E-03
 RMS gradient           =       3.162E-04
 Gradient time:  CPU 3.32 s  wall 3.32 s
 Geometry Optimization Parameters
   NAtoms,    NIC,     NZ,  NCons,   NDum,   NFix, NCnnct, MaxDiis
       14     125       0       0       0       0       0       0

 Cartesian Hessian Update
 Hessian Updated using BFGS Update


** GEOMETRY OPTIMIZATION IN DELOCALIZED INTERNAL COORDINATES **
   Searching for a Minimum

   Optimization Cycle:   9

                       Coordinates (Angstroms)
     ATOM                X               Y               Z
      1  N         0.7051432666   -1.7151213597    1.6314519117
      2  B         0.7480034380    1.2132545295   -0.9001283728
      3  B        -0.9893257409    0.4543541919   -1.1952909678
      4  N        -0.2545689238    0.6763052402    0.1581907807
      5  H         0.0282408140   -2.3273363431    2.0838324794
      6  H         1.3965327346   -1.4657517280    2.3368308819
      7  H         1.1905316770   -2.2803427712    0.9366457596
      8  H         0.8501642219    2.4061205429   -0.9310925225
      9  H         1.7217901197    0.5318334583   -1.0538993871
     10  H        -0.0086521679    0.9310916602   -1.9823109721
     11  H        -1.8986774069    1.2092645956   -1.3888665083
     12  H        -1.0868439035   -0.6926553630   -1.5266935924
     13  H         0.0306024281   -0.1629805396    0.6895712997
     14  H        -0.6638955569    1.3794278861    0.7626982100
   Point Group: c1    Number of degrees of freedom:    36


   Energy is   -165.266530284

 Hessian Updated using BFGS Update

 36 Hessian modes will be used to form the next step
  Hessian Eigenvalues:
     0.002000    0.003655    0.004422    0.019318    0.020350    0.026292
     0.026964    0.027663    0.030904    0.044194    0.046310    0.047707
     0.058044    0.059556    0.073173    0.080780    0.088625    0.090442
     0.138844    0.153226    0.160053    0.160411    0.161495    0.162930
     0.186911    0.238554    0.241944    0.249043    0.249194    0.249840
     0.261377    0.431384    0.447275    0.447637    0.451952    0.493413

 Minimum Search - Taking Simple RFO Step
 Searching for Lamda that Minimizes Along All modes
 Value Taken    Lamda =  -0.00012194
 Step Taken.  Stepsize is  0.157431

                             Maximum     Tolerance    Cnvgd?
         Gradient           0.000802      0.000300      NO
         Displacement       0.069505      0.001200      NO
         Energy change     -0.000073      0.000001      NO


 New Cartesian Coordinates Obtained by Inverse Iteration

 Displacement from previous Coordinates is:  0.250574
 ----------------------------------------------------------------
             Standard Nuclear Orientation (Angstroms)
    I     Atom           X                Y                Z
 ----------------------------------------------------------------
    1      N       0.6964591364    -1.7121836368     1.6144986798
    2      B       0.7481833898     1.2218167956    -0.9017209463
    3      B      -0.9792831730     0.4338646097    -1.1753447496
    4      N      -0.2488850017     0.6979536856     0.1710807652
    5      H       0.0054356566    -2.3221330107     2.0487204634
    6      H       1.3943340892    -1.5005763773     2.3260333753
    7      H       1.1670564864    -2.2667651263     0.9010029326
    8      H       0.8466901385     2.4142143741    -0.9571712241
    9      H       1.7256321845     0.5414339171    -1.0392629970
   10      H      -0.0071681822     0.9138733645    -1.9745228489
   11      H      -1.9008504781     1.1695750581    -1.3867259124
   12      H      -1.0577844026    -0.7212812737    -1.4838146790
   13      H       0.0457509129    -0.1256078322     0.7223903390
   14      H      -0.6665257567     1.4132794522     0.7557758021
 ----------------------------------------------------------------
 Nuclear Repulsion Energy =   119.0487045800 hartrees
 There are       17 alpha and       17 beta electrons
 Applying Cartesian multipole field
    Component          Value
    ---------          -----
     (2,0,0)        1.00000E-11
     (0,2,0)        2.00000E-11
     (0,0,2)       -3.00000E-11
 Nucleus-field energy     =    -0.0000000006 hartrees
 length of FILE_MO_COEFS: 12960 
 Requested basis set is 6-31G(d)
 There are 36 shells and 80 basis functions
 in ParallelAOLoop for JobNumber:  2 JobType:  2 
 A cutoff of  1.0D-10 yielded    623 shell pairs
 There are      3245 function pairs
 in ParallelAOLoop for JobNumber: 11 JobType: 11 
 DoParallel is ON (aoloop_n) 
 Smallest overlap matrix eigenvalue = 7.55E-03
 Guess MOs from SCF MO coefficient file
 Reading MOs from coefficient file
 Reading MOs from coefficient file
 A restricted hybrid HF-DFT SCF calculation will be
 performed using Relaxed Constraint Minimization + Pulay DIIS
 Exchange:     0.2000 Hartree-Fock + 0.0800 Slater + 0.7200 B88
 Correlation:  0.1900 VWN1RPA + 0.8100 LYP
 Using SG-1 standard quadrature grid
 SCF converges when DIIS error is below 1.0E-06
 Geometry optimization detected.  Setting ReadMinima to 0
 Setting SaveMinima to 0
 in ParallelAOLoop for JobNumber: 22 JobType: 22 
 ---------------------------------------
  Cycle       Energy         DIIS Error
 ---------------------------------------
    1    -165.2649644591      8.44E-04 Done RCA. Switching to DIIS
 in ParallelAOLoop for JobNumber: 22 JobType: 22 
    2    -165.2666091941      8.71E-05
 in ParallelAOLoop for JobNumber: 22 JobType: 22 
    3    -165.2666167048      4.67E-05
 in ParallelAOLoop for JobNumber: 22 JobType: 22 
    4    -165.2666180517      2.59E-05
 in ParallelAOLoop for JobNumber: 22 JobType: 22 
    5    -165.2666185269      6.40E-06
 in ParallelAOLoop for JobNumber: 22 JobType: 22 
    6    -165.2666185543      1.43E-06
 in ParallelAOLoop for JobNumber: 22 JobType: 22 
    7    -165.2666185561      2.57E-07 Convergence criterion met
 ---------------------------------------
 SCF time:  CPU 9.52 s  wall 9.41 s
 SCF   energy in the final basis set = -165.2666185561
 Total energy in the final basis set = -165.2666185561
 No wavefunction analysis requested
 Calculating analytic gradient of the SCF energy
 in ParallelAOLoop for JobNumber: 111 JobType: 11 
 DoParallel is ON (aoloop_n) 
 in ParallelAOLoop for JobNumber: 122 JobType: 22 
 Gradient of SCF Energy
            1           2           3           4           5           6
    1  -0.0000200  -0.0006780   0.0009229   0.0000108  -0.0001392  -0.0000778
    2  -0.0004551   0.0002941  -0.0000851  -0.0018929  -0.0001696   0.0006014
    3  -0.0000650   0.0000618  -0.0000871  -0.0000984   0.0000287  -0.0000737
            7           8           9          10          11          12
    1   0.0000566   0.0001770   0.0003519  -0.0002189   0.0001593  -0.0005491
    2  -0.0001997   0.0001349   0.0002560   0.0000102   0.0004466  -0.0000263
    3   0.0000315  -0.0001671   0.0000396   0.0000687   0.0001718  -0.0002090
           13          14
    1   0.0000554  -0.0000508
    2   0.0003675   0.0007181
    3   0.0005735  -0.0002753
 Max gradient component =       1.893E-03
 RMS gradient           =       4.273E-04
 Gradient time:  CPU 3.40 s  wall 3.41 s
 Geometry Optimization Parameters
   NAtoms,    NIC,     NZ,  NCons,   NDum,   NFix, NCnnct, MaxDiis
       14     125       0       0       0       0       0       0

 Cartesian Hessian Update
 Hessian Updated using BFGS Update


** GEOMETRY OPTIMIZATION IN DELOCALIZED INTERNAL COORDINATES **
   Searching for a Minimum

   Optimization Cycle:  10

                       Coordinates (Angstroms)
     ATOM                X               Y               Z
      1  N         0.6964591364   -1.7121836368    1.6144986798
      2  B         0.7481833898    1.2218167956   -0.9017209463
      3  B        -0.9792831730    0.4338646097   -1.1753447496
      4  N        -0.2488850017    0.6979536856    0.1710807652
      5  H         0.0054356566   -2.3221330107    2.0487204634
      6  H         1.3943340892   -1.5005763773    2.3260333753
      7  H         1.1670564864   -2.2667651263    0.9010029326
      8  H         0.8466901385    2.4142143741   -0.9571712241
      9  H         1.7256321845    0.5414339171   -1.0392629970
     10  H        -0.0071681822    0.9138733645   -1.9745228489
     11  H        -1.9008504781    1.1695750581   -1.3867259124
     12  H        -1.0577844026   -0.7212812737   -1.4838146790
     13  H         0.0457509129   -0.1256078322    0.7223903390
     14  H        -0.6665257567    1.4132794522    0.7557758021
   Point Group: c1    Number of degrees of freedom:    36


   Energy is   -165.266618556

 Hessian Updated using BFGS Update

 36 Hessian modes will be used to form the next step
  Hessian Eigenvalues:
     0.002122    0.002646    0.004423    0.019186    0.020326    0.026378
     0.026686    0.027236    0.029016    0.043930    0.046250    0.047626
     0.056965    0.059661    0.065969    0.078993    0.087812    0.088836
     0.138339    0.148950    0.160034    0.160119    0.160956    0.163345
     0.186912    0.239819    0.242077    0.249043    0.249269    0.249813
     0.262690    0.431384    0.447273    0.447621    0.451857    0.496813

 Minimum Search - Taking Simple RFO Step
 Searching for Lamda that Minimizes Along All modes
 Value Taken    Lamda =  -0.00010292
 Step Taken.  Stepsize is  0.143155

                             Maximum     Tolerance    Cnvgd?
         Gradient           0.000703      0.000300      NO
         Displacement       0.067333      0.001200      NO
         Energy change     -0.000088      0.000001      NO


 New Cartesian Coordinates Obtained by Inverse Iteration

 Displacement from previous Coordinates is:  0.259039
 ----------------------------------------------------------------
             Standard Nuclear Orientation (Angstroms)
    I     Atom           X                Y                Z
 ----------------------------------------------------------------
    1      N       0.6875277876    -1.7053410704     1.5968974999
    2      B       0.7491600771     1.2296781142    -0.9014977794
    3      B      -0.9686331623     0.4137955728    -1.1553654084
    4      N      -0.2445760710     0.7211597432     0.1837954264
    5      H      -0.0166400358    -2.3081926071     2.0199512920
    6      H       1.3987519413    -1.5370527855     2.3069660765
    7      H       1.1336321613    -2.2516174821     0.8615013138
    8      H       0.8462498400     2.4208611829    -0.9787100477
    9      H       1.7271499504     0.5467832732    -1.0233520474
   10      H      -0.0051418436     0.9002481708    -1.9655497725
   11      H      -1.9056587437     1.1235063733    -1.3872227919
   12      H      -1.0194263350    -0.7494321725    -1.4387741125
   13      H       0.0575961961    -0.0904956517     0.7490368013
   14      H      -0.6709467625     1.4435633390     0.7532625497
 ----------------------------------------------------------------
 Nuclear Repulsion Energy =   119.2302467366 hartrees
 There are       17 alpha and       17 beta electrons
 Applying Cartesian multipole field
    Component          Value
    ---------          -----
     (2,0,0)        1.00000E-11
     (0,2,0)        2.00000E-11
     (0,0,2)       -3.00000E-11
 Nucleus-field energy     =    -0.0000000005 hartrees
 length of FILE_MO_COEFS: 12960 
 Requested basis set is 6-31G(d)
 There are 36 shells and 80 basis functions
 in ParallelAOLoop for JobNumber:  2 JobType:  2 
 A cutoff of  1.0D-10 yielded    623 shell pairs
 There are      3245 function pairs
 in ParallelAOLoop for JobNumber: 11 JobType: 11 
 DoParallel is ON (aoloop_n) 
 Smallest overlap matrix eigenvalue = 7.56E-03
 Guess MOs from SCF MO coefficient file
 Reading MOs from coefficient file
 Reading MOs from coefficient file
 A restricted hybrid HF-DFT SCF calculation will be
 performed using Relaxed Constraint Minimization + Pulay DIIS
 Exchange:     0.2000 Hartree-Fock + 0.0800 Slater + 0.7200 B88
 Correlation:  0.1900 VWN1RPA + 0.8100 LYP
 Using SG-1 standard quadrature grid
 SCF converges when DIIS error is below 1.0E-06
 Geometry optimization detected.  Setting ReadMinima to 0
 Setting SaveMinima to 0
 in ParallelAOLoop for JobNumber: 22 JobType: 22 
 ---------------------------------------
  Cycle       Energy         DIIS Error
 ---------------------------------------
    1    -165.2652672795      8.75E-04 Done RCA. Switching to DIIS
 in ParallelAOLoop for JobNumber: 22 JobType: 22 
    2    -165.2666809572      8.71E-05
 in ParallelAOLoop for JobNumber: 22 JobType: 22 
    3    -165.2666893515      3.69E-05
 in ParallelAOLoop for JobNumber: 22 JobType: 22 
    4    -165.2666900556      2.52E-05
 in ParallelAOLoop for JobNumber: 22 JobType: 22 
    5    -165.2666905193      5.08E-06
 in ParallelAOLoop for JobNumber: 22 JobType: 22 
    6    -165.2666905363      1.28E-06
 in ParallelAOLoop for JobNumber: 22 JobType: 22 
    7    -165.2666905376      2.48E-07 Convergence criterion met
 ---------------------------------------
 SCF time:  CPU 10.45 s  wall 10.38 s
 SCF   energy in the final basis set = -165.2666905376
 Total energy in the final basis set = -165.2666905376
 No wavefunction analysis requested
 Calculating analytic gradient of the SCF energy
 in ParallelAOLoop for JobNumber: 111 JobType: 11 
 DoParallel is ON (aoloop_n) 
 in ParallelAOLoop for JobNumber: 122 JobType: 22 
 Gradient of SCF Energy
            1           2           3           4           5           6
    1  -0.0001383  -0.0007348   0.0007766  -0.0001635  -0.0001441  -0.0000251
    2  -0.0003406   0.0006859  -0.0003871  -0.0015504  -0.0002065   0.0005741
    3  -0.0003681  -0.0005663   0.0003740  -0.0000036   0.0000517   0.0000278
            7           8           9          10          11          12
    1   0.0000697   0.0003583   0.0002142   0.0000540   0.0000666  -0.0004099
    2  -0.0003068   0.0001033  -0.0000315   0.0002160   0.0003757  -0.0000823
    3   0.0000521  -0.0001077   0.0001224   0.0001197   0.0000103  -0.0002069
           13          14
    1   0.0001614  -0.0000853
    2   0.0003283   0.0006218
    3   0.0006856  -0.0001909
 Max gradient component =       1.550E-03
 RMS gradient           =       4.111E-04
 Gradient time:  CPU 3.65 s  wall 3.65 s
 Geometry Optimization Parameters
   NAtoms,    NIC,     NZ,  NCons,   NDum,   NFix, NCnnct, MaxDiis
       14     125       0       0       0       0       0       0

 Cartesian Hessian Update
 Hessian Updated using BFGS Update


** GEOMETRY OPTIMIZATION IN DELOCALIZED INTERNAL COORDINATES **
   Searching for a Minimum

   Optimization Cycle:  11

                       Coordinates (Angstroms)
     ATOM                X               Y               Z
      1  N         0.6875277876   -1.7053410704    1.5968974999
      2  B         0.7491600771    1.2296781142   -0.9014977794
      3  B        -0.9686331623    0.4137955728   -1.1553654084
      4  N        -0.2445760710    0.7211597432    0.1837954264
      5  H        -0.0166400358   -2.3081926071    2.0199512920
      6  H         1.3987519413   -1.5370527855    2.3069660765
      7  H         1.1336321613   -2.2516174821    0.8615013138
      8  H         0.8462498400    2.4208611829   -0.9787100477
      9  H         1.7271499504    0.5467832732   -1.0233520474
     10  H        -0.0051418436    0.9002481708   -1.9655497725
     11  H        -1.9056587437    1.1235063733   -1.3872227919
     12  H        -1.0194263350   -0.7494321725   -1.4387741125
     13  H         0.0575961961   -0.0904956517    0.7490368013
     14  H        -0.6709467625    1.4435633390    0.7532625497
   Point Group: c1    Number of degrees of freedom:    36


   Energy is   -165.266690538

 Hessian Updated using BFGS Update

 36 Hessian modes will be used to form the next step
  Hessian Eigenvalues:
[...]
  Hessian Eigenvalues:
     0.001528    0.002686    0.003549    0.014217    0.017603    0.018863
     0.020548    0.024817    0.026812    0.027845    0.045100    0.045713
     0.049839    0.059235    0.060232    0.061119    0.083118    0.087026
     0.089249    0.137556    0.143041    0.157905    0.159944    0.161395
     0.186897    0.227563    0.242039    0.249054    0.249069    0.249814
     0.260906    0.431297    0.447268    0.447644    0.451719    0.494502

 Minimum Search - Taking Simple RFO Step
 Searching for Lamda that Minimizes Along All modes
 Value Taken    Lamda =   0.00000000
 Step Taken.  Stepsize is  0.004411

                             Maximum     Tolerance    Cnvgd?
         Gradient           0.000058      0.000300     YES
         Displacement       0.001782      0.001200      NO
         Energy change     -0.000001      0.000001     YES


                       Distance Matrix (Angstroms)
             N (  1)   B (  2)   B (  3)   N (  4)   H (  5)   H (  6)
   B (  2)  3.843101
   B (  3)  3.793633  1.919747
   N (  4)  2.952766  1.554423  1.554772
   H (  5)  1.018800  4.623387  4.212924  3.519703
   H (  6)  1.018710  4.326214  4.621151  3.572483  1.636324
   H (  7)  1.019065  3.859353  3.797774  3.280117  1.632665  1.633449
   H (  8)  4.872560  1.197298  2.710681  2.326197  5.648513  5.253389
   H (  9)  3.597615  1.198464  2.699958  2.318490  4.507210  3.948710
   H ( 10)  4.424144  1.349320  1.347103  2.169599  5.056762  5.111435
   H ( 11)  4.809150  2.711867  1.197383  2.326506  5.106172  5.641433
   H ( 12)  3.510012  2.700054  1.198599  2.317031  3.811481  4.444817
   H ( 13)  1.927760  2.219266  2.214346  1.033967  2.536798  2.567155
   H ( 14)  3.541912  2.193973  2.194760  1.013471  3.990472  4.054773
             H (  7)   H (  8)   H (  9)   H ( 10)   H ( 11)   H ( 12)
   H (  8)  4.989675
   H (  9)  3.391038  2.072864
   H ( 10)  4.259215  2.002501  2.004244
   H ( 11)  4.912646  3.082378  3.701063  2.001636
   H ( 12)  3.276048  3.700497  3.049130  2.003704  2.073076
   H ( 13)  2.371025  3.146442  2.514582  2.884799  3.140395  2.504886
   H ( 14)  4.067608  2.504390  3.119663  2.855830  2.505290  3.118729
             H ( 13)
   H ( 14)  1.697618
 
 Final energy is   -165.266786401073     


 ******************************
 **  OPTIMIZATION CONVERGED  **
 ******************************

                       Coordinates (Angstroms)
     ATOM                X               Y               Z
      1  N         0.6799703127   -1.6879524946    1.5895886649
      2  B         0.7518969827    1.2438392397   -0.8941277781
      3  B        -0.9482761410    0.3862270965   -1.1377259895
      4  N        -0.2381613596    0.7486047061    0.1970910665
      5  H        -0.0483945391   -2.2592175166    2.0151399586
      6  H         1.4429411074   -1.6328310921    2.2623500299
      7  H         1.0329339964   -2.2159827679    0.7926612483
      8  H         0.8229770897    2.4338700900   -1.0050156268
      9  H         1.7413770710    0.5755779769   -0.9974319611
     10  H         0.0059157724    0.8719591515   -1.9552033774
     11  H        -1.9067701379    1.0562982429   -1.3946682580
     12  H        -0.9590837026   -0.7874315910   -1.3807221807
     13  H         0.0735544445   -0.0477715213    0.7782164867
     14  H        -0.6818358965    1.4722744798    0.7507867168

Z-matrix Print:
$molecule
0 1
N 
H  1 1.013471
H  1 1.033967 2 112.017594
B  1 1.554423 2 115.777118 3 137.040710 0
H  4 1.197298 1 114.802556 2 3.882857 0
H  4 1.198464 1 114.124849 2 -139.932267 0
H  4 1.349320 1 96.436737 2 112.030313 0
B  7 1.347103 4 90.789260 1 0.327096 0
H  8 1.197383 7 103.592102 4 -117.836789 0
H  8 1.198599 7 103.676071 4 116.336580 0
N  3 1.927760 1 170.646481 2 -164.781275 0
H  11 1.018710 3 117.873403 1 -130.856349 0
H  11 1.018800 3 115.339858 1 101.310964 0
H  11 1.019065 3 102.748221 1 -14.093597 0
$end

 No wavefunction analysis requested
 Total job time:  222.15s(wall), 218.53s(cpu) 
 Thu Nov 17 14:36:34 2016

======= MOLDEN-FORMATTED INPUT FILE FOLLOWS =======
[Molden Format]
[Atoms] (Angs)
  N      1    7      0.67997031     -1.68795249      1.58958866
  B      2    5      0.75189698      1.24383924     -0.89412778
  B      3    5     -0.94827614      0.38622710     -1.13772599
  N      4    7     -0.23816136      0.74860471      0.19709107
  H      5    1     -0.04839454     -2.25921752      2.01513996
  H      6    1      1.44294111     -1.63283109      2.26235003
  H      7    1      1.03293400     -2.21598277      0.79266125
  H      8    1      0.82297709      2.43387009     -1.00501563
  H      9    1      1.74137707      0.57557798     -0.99743196
  H     10    1      0.00591577      0.87195915     -1.95520338
  H     11    1     -1.90677014      1.05629824     -1.39466826
  H     12    1     -0.95908370     -0.78743159     -1.38072218
  H     13    1      0.07355444     -0.04777152      0.77821649
  H     14    1     -0.68183590      1.47227448      0.75078672
[GEOCONV]
energy
     -165.2659899950
     -165.2661478974
     -165.2662598561
     -165.2662983206
     -165.2663390076
     -165.2663727860
     -165.2664100207
     -165.2664576424
     -165.2665302839
     -165.2666185561
     -165.2666905376
     -165.2667312689
     -165.2667498509
     -165.2667660399
     -165.2667781133
     -165.2667837779
     -165.2667857661
     -165.2667864011
max-force
        0.0018102636
        0.0007116009
        0.0008349462
        0.0007839099
        0.0009464332
        0.0008698246
        0.0008583396
        0.0009139923
        0.0008019649
        0.0007031709
        0.0007729921
        0.0007608803
        0.0006570983
        0.0004726295
        0.0002408673
        0.0002200240
        0.0001133816
        0.0000584687
max-step
        0.0392572041
        0.0690439070
        0.0433025435
        0.0547881941
        0.0441051537
        0.0366381007
        0.0407011032
        0.0514398299
        0.0695049120
        0.0673333243
        0.0420950277
        0.0216032161
        0.0246104164
        0.0240209918
        0.0135300712
        0.0049483558
        0.0034526021
        0.0017819269
[GEOMETRIES] (XYZ)
  14
Step 1
  N      0.74101200     -1.69799200      1.69298900
  B      0.74135500      1.18284800     -0.89473600
  B     -1.01168700      0.49684500     -1.25464700
  N     -0.29113100      0.60530700      0.11544400
  H      0.08814500     -2.26971600      2.22339400
  H      1.46939000     -1.40462900      2.34015000
  H      1.18635000     -2.31501300      1.01737200
  H      0.94110300      2.35781300     -0.79127000
  H      1.65652800      0.44773400     -1.12749800
  H     -0.03973400      1.08793200     -1.98370800
  H     -1.93760600      1.24288900     -1.38996400
  H     -1.07261000     -0.61144200     -1.69748800
  H     -0.01413500     -0.24988100      0.61870400
  H     -0.68793500      1.28476900      0.75219700
  14
Step 2
  N      0.73401513     -1.70238855      1.68363494
  B      0.74284743      1.19358312     -0.89610397
  B     -1.00759282      0.49067594     -1.24465198
  N     -0.28430314      0.61980022      0.12329134
  H      0.07799511     -2.27731506      2.20992996
  H      1.46335129     -1.41617296      2.33456157
  H      1.17919368     -2.31700509      1.00362874
  H      0.92772260      2.37467946     -0.82057911
  H      1.66725577      0.46228626     -1.11134942
  H     -0.03448981      1.06534386     -1.98533318
  H     -1.93492589      1.23400909     -1.39266893
  H     -1.06749537     -0.62827328     -1.66687983
  H     -0.01134038     -0.24148665      0.62244565
  H     -0.68318859      1.29972764      0.76101322
  14
Step 3
  N      0.72354375     -1.70535094      1.66714098
  B      0.74578846      1.20419505     -0.89666719
  B     -1.00204935      0.48158501     -1.22945726
  N     -0.27442876      0.64049358      0.13498355
  H      0.06507802     -2.28749523      2.18371142
  H      1.45006625     -1.42828115      2.32588169
  H      1.17265517     -2.31354490      0.98308133
  H      0.90594712      2.39074629     -0.85634866
  H      1.68346060      0.48241214     -1.08950402
  H     -0.02546502      1.02736692     -1.98576421
  H     -1.92727772      1.22365888     -1.39701496
  H     -1.06513277     -0.64998825     -1.62013987
  H     -0.00661048     -0.22704692      0.62793898
  H     -0.67653028      1.31871352      0.77309721
  14
Step 4
  N      0.71923468     -1.70612787      1.65915801
  B      0.74725146      1.20619497     -0.89639943
  B     -1.00020061      0.47824727     -1.22310884
  N     -0.27018596      0.64881449      0.13983346
  H      0.06017663     -2.29385772      2.16835427
  H      1.44087019     -1.43105779      2.32402571
  H      1.17460533     -2.30890925      0.97460848
  H      0.89395759      2.39454512     -0.86991723
  H      1.69169635      0.49133565     -1.08044904
  H     -0.02051340      1.00662574     -1.98579070
  H     -1.92147249      1.22296224     -1.39892614
  H     -1.06953133     -0.65770261     -1.59923069
  H     -0.00348749     -0.21986281      0.63136153
  H     -0.67335594      1.32625658      0.77741963
  14
Step 5
  N      0.71563406     -1.70738904      1.65180798
  B      0.74849943      1.20621285     -0.89598288
  B     -0.99898713      0.47581644     -1.21781400
  N     -0.26620521      0.65517676      0.14379800
  H      0.05596232     -2.30275093      2.15051615
  H      1.42868183     -1.43200690      2.32549457
  H      1.18169544     -2.30235805      0.96809223
  H      0.88000791      2.39619626     -0.88243789
  H      1.70084036      0.50074671     -1.07258551
  H     -0.01526702      0.98371296     -1.98604109
  H     -1.91374959      1.22654805     -1.39962249
  H     -1.07945139     -0.66319197     -1.58062120
  H      0.00104217     -0.21239031      0.63665299
  H     -0.66965818      1.33314119      0.77968213
  14
Step 6
  N      0.71374222     -1.70923318      1.64774483
  B      0.74893784      1.20557948     -0.89599195
  B     -0.99837606      0.47436975     -1.21486043
  N     -0.26362462      0.65792461      0.14583268
  H      0.05299939     -2.31092195      2.13675296
  H      1.41844983     -1.43272977      2.32946885
  H      1.18974369     -2.29713184      0.96515588
  H      0.86959046      2.39665568     -0.89145002
  H      1.70755086      0.50807309     -1.06833669
  H     -0.01203571      0.96763942     -1.98644387
  H     -1.90754531      1.23116082     -1.39837726
  H     -1.08929447     -0.66580677     -1.57025462
  H      0.00570494     -0.20647725      0.64293532
  H     -0.66679804      1.33836192      0.77876330
  14
Step 7
  N      0.71229117     -1.71165713      1.64481715
  B      0.74882432      1.20571944     -0.89665864
  B     -0.99740861      0.47203152     -1.21199497
  N     -0.26141404      0.65999597      0.14758631
  H      0.04922188     -2.31853897      2.12381563
  H      1.40956843     -1.43596777      2.33432662
  H      1.19644014     -2.29268713      0.96232102
  H      0.86145036      2.39764535     -0.90050577
  H      1.71294668      0.51507549     -1.06543131
  H     -0.01021008      0.95527637     -1.98665120
  H     -1.90268036      1.23342912     -1.39568995
  H     -1.09670110     -0.66886374     -1.56231297
  H      0.01137774     -0.19915184      0.65196936
  H     -0.66466152      1.34515732      0.77534771
  14
Step 8
  N      0.71008710     -1.71399930      1.64075031
  B      0.74841195      1.20780401     -0.89805455
  B     -0.99503752      0.46666607     -1.20687403
  N     -0.25881304      0.66448890      0.15075009
  H      0.04242156     -2.32447451      2.10864185
  H      1.40243425     -1.44492378      2.33778330
  H      1.19831499     -2.28812101      0.95538552
  H      0.85539348      2.40034816     -0.91205151
  H      1.71734186      0.52243579     -1.06182902
  H     -0.00937561      0.94466261     -1.98583953
  H     -1.89966101      1.22867959     -1.39236217
  H     -1.09775793     -0.67584900     -1.55110737
  H      0.01885101     -0.18702328      0.66570540
  H     -0.66356608      1.35676974      0.77004072
  14
Step 9
  N      0.70514327     -1.71512136      1.63145191
  B      0.74800344      1.21325453     -0.90012837
  B     -0.98932574      0.45435419     -1.19529097
  N     -0.25456892      0.67630524      0.15819078
  H      0.02824081     -2.32733634      2.08383248
  H      1.39653273     -1.46575173      2.33683088
  H      1.19053168     -2.28034277      0.93664576
  H      0.85016422      2.40612054     -0.93109252
  H      1.72179012      0.53183346     -1.05389939
  H     -0.00865217      0.93109166     -1.98231097
  H     -1.89867741      1.20926460     -1.38886651
  H     -1.08684390     -0.69265536     -1.52669359
  H      0.03060243     -0.16298054      0.68957130
  H     -0.66389556      1.37942789      0.76269821
  14
Step 10
  N      0.69645914     -1.71218364      1.61449868
  B      0.74818339      1.22181680     -0.90172095
  B     -0.97928317      0.43386461     -1.17534475
  N     -0.24888500      0.69795369      0.17108077
  H      0.00543566     -2.32213301      2.04872046
  H      1.39433409     -1.50057638      2.32603338
  H      1.16705649     -2.26676513      0.90100293
  H      0.84669014      2.41421437     -0.95717122
  H      1.72563218      0.54143392     -1.03926300
  H     -0.00716818      0.91387336     -1.97452285
  H     -1.90085048      1.16957506     -1.38672591
  H     -1.05778440     -0.72128127     -1.48381468
  H      0.04575091     -0.12560783      0.72239034
  H     -0.66652576      1.41327945      0.75577580
  14
Step 11
  N      0.68752779     -1.70534107      1.59689750
  B      0.74916008      1.22967811     -0.90149778
  B     -0.96863316      0.41379557     -1.15536541
  N     -0.24457607      0.72115974      0.18379543
  H     -0.01664004     -2.30819261      2.01995129
  H      1.39875194     -1.53705279      2.30696608
  H      1.13363216     -2.25161748      0.86150131
  H      0.84624984      2.42086118     -0.97871005
  H      1.72714995      0.54678327     -1.02335205
  H     -0.00514184      0.90024817     -1.96554977
  H     -1.90565874      1.12350637     -1.38722279
  H     -1.01942633     -0.74943217     -1.43877411
  H      0.05759620     -0.09049565      0.74903680
  H     -0.67094676      1.44356334      0.75326255
  14
Step 12
  N      0.68206283     -1.69871415      1.58675772
  B      0.75045359      1.23450459     -0.89980193
  B     -0.96146351      0.40188783     -1.14393741
  N     -0.24266458      0.73665318      0.19110880
  H     -0.02999458     -2.29294051      2.00861074
  H      1.40788794     -1.56367702      2.28910948
  H      1.10329062     -2.24112241      0.83406963
  H      0.84599220      2.42472085     -0.98935119
  H      1.72767682      0.54925032     -1.01266224
  H     -0.00307977      0.89318988     -1.95978737
  H     -1.91012897      1.09063010     -1.38973494
  H     -0.98905884     -0.76634048     -1.40923022
  H      0.06290679     -0.07040358      0.76107892
  H     -0.67483554      1.45982540      0.75470901
  14
Step 13
  N      0.67988683     -1.69466576      1.58373790
  B      0.75144852      1.23679239     -0.89787393
  B     -0.95784986      0.39686102     -1.14005371
  N     -0.24154950      0.74329116      0.19389733
  H     -0.03630763     -2.28269915      2.00708587
  H      1.41600088     -1.57988066      2.27882219
  H      1.08356368     -2.23501650      0.82007197
  H      0.84269372      2.42672584     -0.99361638
  H      1.72975932      0.55298254     -1.00745824
  H     -0.00109164      0.88821474     -1.95746571
  H     -1.91180601      1.07544161     -1.39190836
  H     -0.97430186     -0.77369043     -1.39560848
  H      0.06506631     -0.06236471      0.76508473
  H     -0.67646778      1.46547191      0.75622382
  14
Step 14
  N      0.67854139     -1.69089651      1.58312740
  B      0.75234830      1.23913487     -0.89561377
  B     -0.95416341      0.39234517     -1.13777938
  N     -0.23994458      0.74774498      0.19592078
  H     -0.04242749     -2.27205962      2.00767940
  H      1.42541632     -1.59870913      2.26985971
  H      1.06252653     -2.22789785      0.80705030
  H      0.83595254      2.42901092     -0.99795841
  H      1.73394913      0.56013260     -1.00302277
  H      0.00140242      0.88156240     -1.95581807
  H     -1.91203757      1.06338214     -1.39355122
  H     -0.96297381     -0.78011683     -1.38492909
  H      0.06798221     -0.05562788      0.76946936
  H     -0.67752698      1.46945874      0.75650474
  14
Step 15
  N      0.67831847     -1.68825638      1.58496146
  B      0.75277373      1.24151882     -0.89386873
  B     -0.95073206      0.38860397     -1.13705344
  N     -0.23833547      0.74959396      0.19706174
  H     -0.04740624     -2.26288577      2.01023485
  H      1.43465196     -1.61774651      2.26369432
  H      1.04373441     -2.22100127      0.79702183
  H      0.82816223      2.43147140     -1.00189992
  H      1.73869381      0.56880611     -0.99999599
  H      0.00367582      0.87547330     -1.95499833
  H     -1.91089838      1.05563727     -1.39418792
  H     -0.95632926     -0.78507588     -1.37911776
  H      0.07131805     -0.05053103      0.77420080
  H     -0.67858209      1.47185601      0.75488609
  14
Step 16
  N      0.67907050     -1.68771534      1.58778017
  B      0.75255178      1.24295616     -0.89350145
  B     -0.94904310      0.38711745     -1.13769628
  N     -0.23773753      0.74895593      0.19707278
  H     -0.04896922     -2.25919171      2.01343296
  H      1.44006933     -1.62814188      2.26230602
  H      1.03530443     -2.21771141      0.79372163
  H      0.82390499      2.43302922     -1.00367417
  H      1.74113960      0.57398829     -0.99902587
  H      0.00481387      0.87303402     -1.95515668
  H     -1.90915711      1.05467167     -1.39416082
  H     -0.95624224     -0.78674648     -1.37956173
  H      0.07308830     -0.04886776      0.77679198
  H     -0.67974859      1.47208584      0.75261046
  14
Step 17
  N      0.67965233     -1.68789487      1.58918797
  B      0.75216003      1.24363377     -0.89384254
  B     -0.94841209      0.38649174     -1.13785810
  N     -0.23780459      0.74851480      0.19704973
  H     -0.04893625     -2.25886999      2.01469028
  H      1.44208104     -1.63185643      2.26245670
  H      1.03329516     -2.21651504      0.79298756
  H      0.82281441      2.43371851     -1.00461351
  H      1.74162659      0.57562848     -0.99828743
  H      0.00541488      0.87226107     -1.95526658
  H     -1.90767551      1.05556686     -1.39420725
  H     -0.95792452     -0.78726040     -1.38050511
  H      0.07365800     -0.04815238      0.77798347
  H     -0.68090448      1.47219788      0.75116380
  14
Step 18
  N      0.67997031     -1.68795249      1.58958866
  B      0.75189698      1.24383924     -0.89412778
  B     -0.94827614      0.38622710     -1.13772599
  N     -0.23816136      0.74860471      0.19709107
  H     -0.04839454     -2.25921752      2.01513996
  H      1.44294111     -1.63283109      2.26235003
  H      1.03293400     -2.21598277      0.79266125
  H      0.82297709      2.43387009     -1.00501563
  H      1.74137707      0.57557798     -0.99743196
  H      0.00591577      0.87195915     -1.95520338
  H     -1.90677014      1.05629824     -1.39466826
  H     -0.95908370     -0.78743159     -1.38072218
  H      0.07355444     -0.04777152      0.77821649
  H     -0.68183590      1.47227448      0.75078672

======= END OF MOLDEN-FORMATTED INPUT FILE =======


        *************************************************************
        *                                                           *
        *  Thank you very much for using Q-Chem.  Have a nice day.  *
        *                                                           *
        *************************************************************


0 sent ACK to 0 
now end server 0 ... 
