Process 0 of 1 is on gollum407.lsa.umich.edu - thread support 0
initial socket setup ...start
initial socket setup ...done 
now start server 0 ... 
 Q-Chem 4.3.0 for Intel X86 EM64T Linux

 Parts of Q-Chem use Armadillo 5.200.1 (Boston Tea Smuggler).
 http://arma.sourceforge.net/

 Q-Chem begins on Thu Nov 17 14:48:04 2016  

Host: gollum407.lsa.umich.edu
0

     Scratch files written to /tmp/77279501.satyr/qchem728//
 Parallel job on  1  processors

Checking the input file for inconsistencies...  ...done.

--------------------------------------------------------------
User input:
--------------------------------------------------------------
 $rem
 JOBTYPE OPT
 EXCHANGE B3LYP
! CORRELATION PBE
! UNRESTRICTED TRUE
 SCF_ALGORITHM rca_diis
 SCF_MAX_CYCLES 150
! BASIS LANL2DZ
! ECP LANL2DZ
 BASIS 6-31G*
 WAVEFUNCTION_ANALYSIS FALSE
 GEOM_OPT_MAX_CYCLES 300

scf_convergence 6

 SYM_IGNORE TRUE
 SYMMETRY   FALSE

molden_format true
 $end


$molecule
0 1
  H 0.411683 0.933336 -0.393972
  C 0.233128 1.105883 0.661774
  C 0.641754 0.237232 1.586782
  H -0.285600 2.008779 0.958465
  H 0.465592 0.414477 2.648399
  O 1.298154 -0.918161 1.284573
  H 1.503522 -1.392872 2.109542
  O 1.194469 -2.733262 3.402573
  C 0.373607 -3.446696 2.863743
  H -0.008156 -4.359206 3.357866
  H -0.026027 -3.214728 1.860356
$end
--------------------------------------------------------------
 ----------------------------------------------------------------
             Standard Nuclear Orientation (Angstroms)
    I     Atom           X                Y                Z
 ----------------------------------------------------------------
    1      H       0.4116830000     0.9333360000    -0.3939720000
    2      C       0.2331280000     1.1058830000     0.6617740000
    3      C       0.6417540000     0.2372320000     1.5867820000
    4      H      -0.2856000000     2.0087790000     0.9584650000
    5      H       0.4655920000     0.4144770000     2.6483990000
    6      O       1.2981540000    -0.9181610000     1.2845730000
    7      H       1.5035220000    -1.3928720000     2.1095420000
    8      O       1.1944690000    -2.7332620000     3.4025730000
    9      C       0.3736070000    -3.4466960000     2.8637430000
   10      H      -0.0081560000    -4.3592060000     3.3578660000
   11      H      -0.0260270000    -3.2147280000     1.8603560000
 ----------------------------------------------------------------
 Nuclear Repulsion Energy =   157.2052161821 hartrees
 There are       20 alpha and       20 beta electrons
 Requested basis set is 6-31G(d)
 There are 32 shells and 87 basis functions

 Total QAlloc Memory Limit   2000 MB
 Mega-Array Size        61 MB
 MEM_STATIC part        62 MB
 in ParallelAOLoop for JobNumber:  2 JobType:  2 
 A cutoff of  1.0D-10 yielded    460 shell pairs
 There are      3567 function pairs
 in ParallelAOLoop for JobNumber: 11 JobType: 11 
 DoParallel is ON (aoloop_n) 
 
 -------------------------------------------------------
 OpenMP Integral Computing Module                       
 Release: version 1.0, May 2013, Q-Chem Inc. Pittsburgh 
 -------------------------------------------------------
 Integral Job Info:
 Integral job number is                      11
 Integral operator is                         1
 short-range coefficients                     0
 long-range coefficients              100000000
 Omega coefficients                           0
 if combine SR and LR in K                    0
 Integral screening is                        0
 Integral computing path is                   2
 max size of driver memory is            800000
 size of driver memory is                593474
 size of scratch memory is              2260544
 max col of scratch BK array               1296
 max len of scratch array in speh3          155
 max len of scratch index in speh4           18
 max int batch size is                      520
 min int batch size is                       52
 fixed nKL is                                52
 max L of basis functions is                  2
 order of int derivative is                   0
 number of shells is                         32
 number of basis is                          87
 number of cartesian basis is                87
 number of contracted shell pairs           460
 number of primitive shell pairs           1837
 maxK2 (contraction) of shell pair           36
 max number of K2 of shell pair               1
 max number of CS2 of shell pair             58
 max number of PS2 of shell pair            252
 mem total for path MDJ                   16392
 -------------------------------------------------------
 Smallest overlap matrix eigenvalue = 5.04E-03

 Scale SEOQF with 1.000000e+00/1.000000e-01/1.000000e-01

 Standard Electronic Orientation quadrupole field applied
 Nucleus-field energy     =     0.0000000027 hartrees
 length of FILE_MO_COEFS: 0 
 Guess from superposition of atomic densities
 Warning:  Energy on first SCF cycle will be non-variational
 A restricted hybrid HF-DFT SCF calculation will be
 performed using Relaxed Constraint Minimization + Pulay DIIS
 Exchange:     0.2000 Hartree-Fock + 0.0800 Slater + 0.7200 B88
 Correlation:  0.1900 VWN1RPA + 0.8100 LYP
 Using SG-1 standard quadrature grid
 SCF converges when DIIS error is below 1.0E-06
 in ParallelAOLoop for JobNumber: 22 JobType: 22 
 ---------------------------------------
  Cycle       Energy         DIIS Error
 ---------------------------------------
    1    -268.9276709026      8.19E-02
 in ParallelAOLoop for JobNumber: 22 JobType: 22 
    2    -268.1916637498      1.22E-02
 in ParallelAOLoop for JobNumber: 22 JobType: 22 
    3    -268.2381876395      3.59E-03
 in ParallelAOLoop for JobNumber: 22 JobType: 22 
    4    -268.3035789500      3.72E-03
 in ParallelAOLoop for JobNumber: 22 JobType: 22 
    5    -268.3088094221      6.64E-04 Done RCA. Switching to DIIS
 in ParallelAOLoop for JobNumber: 22 JobType: 22 
    6    -268.3148959460      8.18E-04
 in ParallelAOLoop for JobNumber: 22 JobType: 22 
    7    -268.3154515219      6.27E-05
 in ParallelAOLoop for JobNumber: 22 JobType: 22 
    8    -268.3154533704      4.46E-05
 in ParallelAOLoop for JobNumber: 22 JobType: 22 
    9    -268.3154550472      3.65E-06
 in ParallelAOLoop for JobNumber: 22 JobType: 22 
   10    -268.3154550575      1.52E-06
 in ParallelAOLoop for JobNumber: 22 JobType: 22 
   11    -268.3154550595      2.32E-07 Convergence criterion met
 ---------------------------------------
 SCF time:  CPU 17.30 s  wall 17.44 s
 SCF   energy in the final basis set = -268.3154550595
 Total energy in the final basis set = -268.3154550595
 No wavefunction analysis requested
 Calculating analytic gradient of the SCF energy
 in ParallelAOLoop for JobNumber: 111 JobType: 11 
 DoParallel is ON (aoloop_n) 
 in ParallelAOLoop for JobNumber: 122 JobType: 22 
 Gradient of SCF Energy
            1           2           3           4           5           6
    1  -0.0000369  -0.0000447   0.0001891   0.0002781  -0.0000741   0.0000860
    2  -0.0000330   0.0001630  -0.0003738  -0.0005447   0.0002027  -0.0008686
    3   0.0006190  -0.0000500  -0.0001561  -0.0000316  -0.0003875   0.0022149
            7           8           9          10          11
    1  -0.0004286   0.0002025  -0.0001898  -0.0000233   0.0000417
    2   0.0012620   0.0004124  -0.0003744  -0.0000132   0.0001677
    3  -0.0019991  -0.0001118  -0.0000268   0.0000016  -0.0000727
 Max gradient component =       2.215E-03
 RMS gradient           =       6.292E-04
 Gradient time:  CPU 3.97 s  wall 4.00 s
 Geometry Optimization Parameters
   NAtoms,    NIC,     NZ,  NCons,   NDum,   NFix, NCnnct, MaxDiis
       11      54       0       0       0       0       0       0


** GEOMETRY OPTIMIZATION IN DELOCALIZED INTERNAL COORDINATES **
   Searching for a Minimum

   Optimization Cycle:   1

                       Coordinates (Angstroms)
     ATOM                X               Y               Z
      1  H         0.4116830000    0.9333360000   -0.3939720000
      2  C         0.2331280000    1.1058830000    0.6617740000
      3  C         0.6417540000    0.2372320000    1.5867820000
      4  H        -0.2856000000    2.0087790000    0.9584650000
      5  H         0.4655920000    0.4144770000    2.6483990000
      6  O         1.2981540000   -0.9181610000    1.2845730000
      7  H         1.5035220000   -1.3928720000    2.1095420000
      8  O         1.1944690000   -2.7332620000    3.4025730000
      9  C         0.3736070000   -3.4466960000    2.8637430000
     10  H        -0.0081560000   -4.3592060000    3.3578660000
     11  H        -0.0260270000   -3.2147280000    1.8603560000
   Point Group: c1    Number of degrees of freedom:    27


   Energy is   -268.315455060


 Attempting to Generate Delocalized Internal Coordinates

 27 Hessian modes will be used to form the next step
  Hessian Eigenvalues:
     0.002000    0.011773    0.020571    0.027949    0.031256    0.031256
     0.040285    0.040285    0.052152    0.160000    0.160000    0.160000
     0.160000    0.160000    0.160000    0.160000    0.160000    0.220000
     0.330594    0.331706    0.347396    0.354498    0.356653    0.523928
     0.526271    0.587782    0.982161

 Minimum Search - Taking Simple RFO Step
 Searching for Lamda that Minimizes Along All modes
 Value Taken    Lamda =  -0.00002292
 Step Taken.  Stepsize is  0.011784

                             Maximum     Tolerance    Cnvgd?
         Gradient           0.001533      0.000300      NO
         Displacement       0.005531      0.001200      NO
         Energy change     *********      0.000001      NO


 New Cartesian Coordinates Obtained by Inverse Iteration

 Displacement from previous Coordinates is:  0.038855
 ----------------------------------------------------------------
             Standard Nuclear Orientation (Angstroms)
    I     Atom           X                Y                Z
 ----------------------------------------------------------------
    1      H       0.4125148116     0.9403368418    -0.3965043970
    2      C       0.2339417568     1.1111073981     0.6604553725
    3      C       0.6413937539     0.2402107830     1.5847872694
    4      H      -0.2838673985     2.0153311586     0.9579316070
    5      H       0.4657466420     0.4145693943     2.6474866210
    6      O       1.2965530659    -0.9163599392     1.2814387126
    7      H       1.5011226169    -1.3936015420     2.1083196717
    8      O       1.1910415196    -2.7344007851     3.4049122347
    9      C       0.3736045309    -3.4519049332     2.8666424169
   10      H      -0.0053812150    -4.3641746571     3.3632669859
   11      H      -0.0245440841    -3.2263317193     1.8613645053
 ----------------------------------------------------------------
 Nuclear Repulsion Energy =   157.0424068850 hartrees
 There are       20 alpha and       20 beta electrons
 Applying Cartesian multipole field
    Component          Value
    ---------          -----
     (2,0,0)        1.00000E-10
     (0,2,0)        2.00000E-11
     (0,0,2)       -3.00000E-11
 Nucleus-field energy     =     0.0000000027 hartrees
 length of FILE_MO_COEFS: 15312 
 Requested basis set is 6-31G(d)
 There are 32 shells and 87 basis functions
 in ParallelAOLoop for JobNumber:  2 JobType:  2 
 A cutoff of  1.0D-10 yielded    460 shell pairs
 There are      3567 function pairs
 in ParallelAOLoop for JobNumber: 11 JobType: 11 
 DoParallel is ON (aoloop_n) 
 Smallest overlap matrix eigenvalue = 5.05E-03
 Guess MOs from SCF MO coefficient file
 Reading MOs from coefficient file
 Reading MOs from coefficient file
 A restricted hybrid HF-DFT SCF calculation will be
 performed using Relaxed Constraint Minimization + Pulay DIIS
 Exchange:     0.2000 Hartree-Fock + 0.0800 Slater + 0.7200 B88
 Correlation:  0.1900 VWN1RPA + 0.8100 LYP
 Using SG-1 standard quadrature grid
 SCF converges when DIIS error is below 1.0E-06
 Geometry optimization detected.  Setting ReadMinima to 0
 Setting SaveMinima to 0
 in ParallelAOLoop for JobNumber: 22 JobType: 22 
 ---------------------------------------
  Cycle       Energy         DIIS Error
 ---------------------------------------
    1    -268.3130471801      2.33E-04 Done RCA. Switching to DIIS
 in ParallelAOLoop for JobNumber: 22 JobType: 22 
    2    -268.3154660075      2.56E-05
 in ParallelAOLoop for JobNumber: 22 JobType: 22 
    3    -268.3154660718      3.04E-05
 in ParallelAOLoop for JobNumber: 22 JobType: 22 
    4    -268.3154668453      1.03E-05
 in ParallelAOLoop for JobNumber: 22 JobType: 22 
    5    -268.3154669374      1.56E-06
 in ParallelAOLoop for JobNumber: 22 JobType: 22 
    6    -268.3154669396      9.23E-07 Convergence criterion met
 ---------------------------------------
 SCF time:  CPU 7.96 s  wall 7.93 s
 SCF   energy in the final basis set = -268.3154669396
 Total energy in the final basis set = -268.3154669396
 No wavefunction analysis requested
 Calculating analytic gradient of the SCF energy
 in ParallelAOLoop for JobNumber: 111 JobType: 11 
 DoParallel is ON (aoloop_n) 
 in ParallelAOLoop for JobNumber: 122 JobType: 22 
 Gradient of SCF Energy
            1           2           3           4           5           6
    1   0.0000247  -0.0001013   0.0001768  -0.0000188  -0.0000112  -0.0002207
    2  -0.0000385   0.0002065  -0.0002601   0.0000019   0.0000098   0.0000331
    3  -0.0000221  -0.0001205  -0.0000939   0.0000368   0.0000324   0.0002054
            7           8           9          10          11
    1   0.0001587   0.0000673  -0.0002196   0.0000862   0.0000579
    2   0.0000118   0.0000228   0.0000316   0.0000007  -0.0000197
    3   0.0000255   0.0000229  -0.0000850   0.0000014  -0.0000029
 Max gradient component =       2.601E-04
 RMS gradient           =       1.062E-04
 Gradient time:  CPU 3.50 s  wall 3.53 s
 Geometry Optimization Parameters
   NAtoms,    NIC,     NZ,  NCons,   NDum,   NFix, NCnnct, MaxDiis
       11      54       0       0       0       0       0       0

 Cartesian Hessian Update
 Hessian Updated using BFGS Update


** GEOMETRY OPTIMIZATION IN DELOCALIZED INTERNAL COORDINATES **
   Searching for a Minimum

   Optimization Cycle:   2

                       Coordinates (Angstroms)
     ATOM                X               Y               Z
      1  H         0.4125148116    0.9403368418   -0.3965043970
      2  C         0.2339417568    1.1111073981    0.6604553725
      3  C         0.6413937539    0.2402107830    1.5847872694
      4  H        -0.2838673985    2.0153311586    0.9579316070
      5  H         0.4657466420    0.4145693943    2.6474866210
      6  O         1.2965530659   -0.9163599392    1.2814387126
      7  H         1.5011226169   -1.3936015420    2.1083196717
      8  O         1.1910415196   -2.7344007851    3.4049122347
      9  C         0.3736045309   -3.4519049332    2.8666424169
     10  H        -0.0053812150   -4.3641746571    3.3632669859
     11  H        -0.0245440841   -3.2263317193    1.8613645053
   Point Group: c1    Number of degrees of freedom:    27


   Energy is   -268.315466940

 Hessian Updated using BFGS Update

 21 Hessian modes will be used to form the next step
  Hessian Eigenvalues:
     0.002037    0.011646    0.020572    0.027954    0.031238    0.031257
     0.040203    0.040762    0.050587    0.143520    0.164703    0.221038
     0.330575    0.331822    0.348104    0.355447    0.360463    0.508502
     0.535723    0.616245    0.980526

 Minimum Search - Taking Simple RFO Step
 Searching for Lamda that Minimizes Along All modes
 Value Taken    Lamda =  -0.00000241
 Step Taken.  Stepsize is  0.016691

                             Maximum     Tolerance    Cnvgd?
         Gradient           0.000170      0.000300     YES
         Displacement       0.011228      0.001200      NO
         Energy change     -0.000012      0.000001      NO


 New Cartesian Coordinates Obtained by Inverse Iteration

 Displacement from previous Coordinates is:  0.057020
 ----------------------------------------------------------------
             Standard Nuclear Orientation (Angstroms)
    I     Atom           X                Y                Z
 ----------------------------------------------------------------
    1      H       0.4193674580     0.9438762124    -0.3952903650
    2      C       0.2333205510     1.1086678219     0.6613783958
    3      C       0.6409678162     0.2366399029     1.5843679347
    4      H      -0.2922471109     2.0083135664     0.9593398068
    5      H       0.4579219259     0.4048087286     2.6468128453
    6      O       1.3059092914    -0.9141655755     1.2794220790
    7      H       1.5084574578    -1.3932114909     2.1061243617
    8      O       1.1993406270    -2.7378542384     3.4004481978
    9      C       0.3728306714    -3.4482135510     2.8667275335
   10      H      -0.0099222259    -4.3584277446     3.3643327992
   11      H      -0.0338204618    -3.2156516318     1.8664374110
 ----------------------------------------------------------------
 Nuclear Repulsion Energy =   157.0489505493 hartrees
 There are       20 alpha and       20 beta electrons
 Applying Cartesian multipole field
    Component          Value
    ---------          -----
     (2,0,0)        1.00000E-10
     (0,2,0)        2.00000E-11
     (0,0,2)       -3.00000E-11
 Nucleus-field energy     =     0.0000000028 hartrees
 length of FILE_MO_COEFS: 15312 
 Requested basis set is 6-31G(d)
 There are 32 shells and 87 basis functions
 in ParallelAOLoop for JobNumber:  2 JobType:  2 
 A cutoff of  1.0D-10 yielded    460 shell pairs
 There are      3567 function pairs
 in ParallelAOLoop for JobNumber: 11 JobType: 11 
 DoParallel is ON (aoloop_n) 
 Smallest overlap matrix eigenvalue = 5.05E-03
 Guess MOs from SCF MO coefficient file
 Reading MOs from coefficient file
 Reading MOs from coefficient file
 A restricted hybrid HF-DFT SCF calculation will be
 performed using Relaxed Constraint Minimization + Pulay DIIS
 Exchange:     0.2000 Hartree-Fock + 0.0800 Slater + 0.7200 B88
 Correlation:  0.1900 VWN1RPA + 0.8100 LYP
 Using SG-1 standard quadrature grid
 SCF converges when DIIS error is below 1.0E-06
 Geometry optimization detected.  Setting ReadMinima to 0
 Setting SaveMinima to 0
 in ParallelAOLoop for JobNumber: 22 JobType: 22 
 ---------------------------------------
  Cycle       Energy         DIIS Error
 ---------------------------------------
    1    -268.3151969994      5.26E-04 Done RCA. Switching to DIIS
 in ParallelAOLoop for JobNumber: 22 JobType: 22 
    2    -268.3154642537      3.28E-05
 in ParallelAOLoop for JobNumber: 22 JobType: 22 
    3    -268.3154668372      1.65E-05
 in ParallelAOLoop for JobNumber: 22 JobType: 22 
    4    -268.3154670104      9.39E-06
 in ParallelAOLoop for JobNumber: 22 JobType: 22 
    5    -268.3154670691      5.53E-06
 in ParallelAOLoop for JobNumber: 22 JobType: 22 
    6    -268.3154670958      1.64E-06
 in ParallelAOLoop for JobNumber: 22 JobType: 22 
    7    -268.3154670977      3.41E-07 Convergence criterion met
 ---------------------------------------
 SCF time:  CPU 9.14 s  wall 9.58 s
 SCF   energy in the final basis set = -268.3154670977
 Total energy in the final basis set = -268.3154670977
 No wavefunction analysis requested
 Calculating analytic gradient of the SCF energy
 in ParallelAOLoop for JobNumber: 111 JobType: 11 
 DoParallel is ON (aoloop_n) 
 in ParallelAOLoop for JobNumber: 122 JobType: 22 
 Gradient of SCF Energy
            1           2           3           4           5           6
    1   0.0000128  -0.0000030   0.0000528  -0.0000259  -0.0000131  -0.0001307
    2  -0.0000107   0.0000067  -0.0000957   0.0000364  -0.0000125   0.0000815
    3  -0.0000645  -0.0000297   0.0000001   0.0000231   0.0000407  -0.0002662
            7           8           9          10          11
    1   0.0001045  -0.0000639   0.0002292  -0.0000715  -0.0000912
    2   0.0000038   0.0000229  -0.0001743   0.0000710   0.0000710
    3   0.0003340   0.0000476  -0.0002235   0.0000606   0.0000778
 Max gradient component =       3.340E-04
 RMS gradient           =       1.117E-04
 Gradient time:  CPU 3.52 s  wall 3.53 s
 Geometry Optimization Parameters
   NAtoms,    NIC,     NZ,  NCons,   NDum,   NFix, NCnnct, MaxDiis
       11      54       0       0       0       0       0       0

 Cartesian Hessian Update
 Hessian Updated using BFGS Update


** GEOMETRY OPTIMIZATION IN DELOCALIZED INTERNAL COORDINATES **
   Searching for a Minimum

   Optimization Cycle:   3

                       Coordinates (Angstroms)
     ATOM                X               Y               Z
      1  H         0.4193674580    0.9438762124   -0.3952903650
      2  C         0.2333205510    1.1086678219    0.6613783958
      3  C         0.6409678162    0.2366399029    1.5843679347
      4  H        -0.2922471109    2.0083135664    0.9593398068
      5  H         0.4579219259    0.4048087286    2.6468128453
      6  O         1.3059092914   -0.9141655755    1.2794220790
      7  H         1.5084574578   -1.3932114909    2.1061243617
      8  O         1.1993406270   -2.7378542384    3.4004481978
      9  C         0.3728306714   -3.4482135510    2.8667275335
     10  H        -0.0099222259   -4.3584277446    3.3643327992
     11  H        -0.0338204618   -3.2156516318    1.8664374110
   Point Group: c1    Number of degrees of freedom:    27


   Energy is   -268.315467098

 Hessian Updated using BFGS Update

 22 Hessian modes will be used to form the next step
  Hessian Eigenvalues:
     0.003060    0.010862    0.020585    0.027943    0.031193    0.031256
     0.039602    0.046369    0.080634    0.105275    0.161461    0.167177
     0.220819    0.330473    0.331701    0.347779    0.355354    0.359478
     0.507332    0.550957    0.600210    0.978531

 Minimum Search - Taking Simple RFO Step
 Searching for Lamda that Minimizes Along All modes
 Value Taken    Lamda =  -0.00000229
 Step Taken.  Stepsize is  0.013267

                             Maximum     Tolerance    Cnvgd?
         Gradient           0.000303      0.000300      NO
         Displacement       0.009627      0.001200      NO
         Energy change     -0.000000      0.000001     YES


 New Cartesian Coordinates Obtained by Inverse Iteration

 Displacement from previous Coordinates is:  0.037065
 ----------------------------------------------------------------
             Standard Nuclear Orientation (Angstroms)
    I     Atom           X                Y                Z
 ----------------------------------------------------------------
    1      H       0.4174748773     0.9455559409    -0.3956504058
    2      C       0.2342687938     1.1115498174     0.6612552154
    3      C       0.6408498612     0.2387856489     1.5838196623
    4      H      -0.2875404556     2.0131930792     0.9595982629
    5      H       0.4607103715     0.4081167420     2.6465159246
    6      O       1.3013441235    -0.9144409126     1.2777753529
    7      H       1.5036136742    -1.3935321125     2.1043955964
    8      O       1.1934096156    -2.7346571821     3.4028737972
    9      C       0.3731092226    -3.4514318487     2.8682299724
   10      H      -0.0070875153    -4.3619356913     3.3673318577
   11      H      -0.0280265687    -3.2264214812     1.8639557641
 ----------------------------------------------------------------
 Nuclear Repulsion Energy =   157.0166262228 hartrees
 There are       20 alpha and       20 beta electrons
 Applying Cartesian multipole field
    Component          Value
    ---------          -----
     (2,0,0)        1.00000E-10
     (0,2,0)        2.00000E-11
     (0,0,2)       -3.00000E-11
 Nucleus-field energy     =     0.0000000028 hartrees
 length of FILE_MO_COEFS: 15312 
 Requested basis set is 6-31G(d)
 There are 32 shells and 87 basis functions
 in ParallelAOLoop for JobNumber:  2 JobType:  2 
 A cutoff of  1.0D-10 yielded    460 shell pairs
 There are      3567 function pairs
 in ParallelAOLoop for JobNumber: 11 JobType: 11 
 DoParallel is ON (aoloop_n) 
 Smallest overlap matrix eigenvalue = 5.05E-03
 Guess MOs from SCF MO coefficient file
 Reading MOs from coefficient file
 Reading MOs from coefficient file
 A restricted hybrid HF-DFT SCF calculation will be
 performed using Relaxed Constraint Minimization + Pulay DIIS
 Exchange:     0.2000 Hartree-Fock + 0.0800 Slater + 0.7200 B88
 Correlation:  0.1900 VWN1RPA + 0.8100 LYP
 Using SG-1 standard quadrature grid
 SCF converges when DIIS error is below 1.0E-06
 Geometry optimization detected.  Setting ReadMinima to 0
 Setting SaveMinima to 0
 in ParallelAOLoop for JobNumber: 22 JobType: 22 
 ---------------------------------------
  Cycle       Energy         DIIS Error
 ---------------------------------------
    1    -268.3153244989      3.42E-04 Done RCA. Switching to DIIS
 in ParallelAOLoop for JobNumber: 22 JobType: 22 
    2    -268.3154671680      2.21E-05
 in ParallelAOLoop for JobNumber: 22 JobType: 22 
    3    -268.3154681287      1.83E-05
 in ParallelAOLoop for JobNumber: 22 JobType: 22 
    4    -268.3154683215      9.99E-06
 in ParallelAOLoop for JobNumber: 22 JobType: 22 
    5    -268.3154683998      2.67E-06
 in ParallelAOLoop for JobNumber: 22 JobType: 22 
    6    -268.3154684060      1.41E-06
 in ParallelAOLoop for JobNumber: 22 JobType: 22 
    7    -268.3154684078      1.81E-07 Convergence criterion met
 ---------------------------------------
 SCF time:  CPU 8.63 s  wall 8.56 s
 SCF   energy in the final basis set = -268.3154684078
 Total energy in the final basis set = -268.3154684078
 No wavefunction analysis requested
 Calculating analytic gradient of the SCF energy
 in ParallelAOLoop for JobNumber: 111 JobType: 11 
 DoParallel is ON (aoloop_n) 
 in ParallelAOLoop for JobNumber: 122 JobType: 22 
 Gradient of SCF Energy
            1           2           3           4           5           6
    1  -0.0000011   0.0000485  -0.0000215  -0.0000064  -0.0000128  -0.0000892
    2   0.0000096  -0.0001038   0.0000481   0.0000078   0.0000075   0.0000123
    3  -0.0000176   0.0000423   0.0000228  -0.0000017   0.0000111  -0.0003018
            7           8           9          10          11
    1   0.0000934  -0.0000235   0.0000046  -0.0000027   0.0000106
    2   0.0000445  -0.0000260   0.0000098  -0.0000120   0.0000023
    3   0.0002594  -0.0000202  -0.0000060  -0.0000051   0.0000168
 Max gradient component =       3.018E-04
 RMS gradient           =       7.758E-05
 Gradient time:  CPU 3.73 s  wall 3.76 s
 Geometry Optimization Parameters
   NAtoms,    NIC,     NZ,  NCons,   NDum,   NFix, NCnnct, MaxDiis
       11      54       0       0       0       0       0       0

 Cartesian Hessian Update
 Hessian Updated using BFGS Update


** GEOMETRY OPTIMIZATION IN DELOCALIZED INTERNAL COORDINATES **
   Searching for a Minimum

   Optimization Cycle:   4

                       Coordinates (Angstroms)
     ATOM                X               Y               Z
      1  H         0.4174748773    0.9455559409   -0.3956504058
      2  C         0.2342687938    1.1115498174    0.6612552154
      3  C         0.6408498612    0.2387856489    1.5838196623
      4  H        -0.2875404556    2.0131930792    0.9595982629
      5  H         0.4607103715    0.4081167420    2.6465159246
      6  O         1.3013441235   -0.9144409126    1.2777753529
      7  H         1.5036136742   -1.3935321125    2.1043955964
      8  O         1.1934096156   -2.7346571821    3.4028737972
      9  C         0.3731092226   -3.4514318487    2.8682299724
     10  H        -0.0070875153   -4.3619356913    3.3673318577
     11  H        -0.0280265687   -3.2264214812    1.8639557641
   Point Group: c1    Number of degrees of freedom:    27


   Energy is   -268.315468408

 Hessian Updated using BFGS Update

 23 Hessian modes will be used to form the next step
  Hessian Eigenvalues:
     0.002765    0.010545    0.020522    0.027955    0.031211    0.031255
     0.039231    0.046463    0.085273    0.102109    0.158886    0.160792
     0.167475    0.221779    0.330547    0.331615    0.347683    0.355324
     0.359267    0.509196    0.521981    0.606575    0.978589

 Minimum Search - Taking Simple RFO Step
 Searching for Lamda that Minimizes Along All modes
 Value Taken    Lamda =   0.00000000
 Step Taken.  Stepsize is  0.006780

                             Maximum     Tolerance    Cnvgd?
         Gradient           0.000184      0.000300     YES
         Displacement       0.006020      0.001200      NO
         Energy change     -0.000001      0.000001      NO


 New Cartesian Coordinates Obtained by Inverse Iteration

 Displacement from previous Coordinates is:  0.011680
 ----------------------------------------------------------------
             Standard Nuclear Orientation (Angstroms)
    I     Atom           X                Y                Z
 ----------------------------------------------------------------
    1      H       0.4179732378     0.9473668433    -0.3956210478
    2      C       0.2346389788     1.1128232859     0.6613167264
    3      C       0.6407528020     0.2392580121     1.5833955905
    4      H      -0.2869537483     2.0144500524     0.9600208085
    5      H       0.4604530936     0.4079098549     2.6461342100
    6      O       1.3008979776    -0.9141368835     1.2768806897
    7      H       1.5025755678    -1.3941240988     2.1028686396
    8      O       1.1920311818    -2.7336960997     3.4030910142
    9      C       0.3732249949    -3.4525054038     2.8689234114
   10      H      -0.0065692680    -4.3623669724     3.3694917333
   11      H      -0.0268988180    -3.2301965903     1.8635992243
 ----------------------------------------------------------------
 Nuclear Repulsion Energy =   156.9996833217 hartrees
 There are       20 alpha and       20 beta electrons
 Applying Cartesian multipole field
    Component          Value
    ---------          -----
     (2,0,0)        1.00000E-10
     (0,2,0)        2.00000E-11
     (0,0,2)       -3.00000E-11
 Nucleus-field energy     =     0.0000000027 hartrees
 length of FILE_MO_COEFS: 15312 
 Requested basis set is 6-31G(d)
 There are 32 shells and 87 basis functions
 in ParallelAOLoop for JobNumber:  2 JobType:  2 
 A cutoff of  1.0D-10 yielded    460 shell pairs
 There are      3567 function pairs
 in ParallelAOLoop for JobNumber: 11 JobType: 11 
 DoParallel is ON (aoloop_n) 
 Smallest overlap matrix eigenvalue = 5.05E-03
 Guess MOs from SCF MO coefficient file
 Reading MOs from coefficient file
 Reading MOs from coefficient file
 A restricted hybrid HF-DFT SCF calculation will be
 performed using Relaxed Constraint Minimization + Pulay DIIS
 Exchange:     0.2000 Hartree-Fock + 0.0800 Slater + 0.7200 B88
 Correlation:  0.1900 VWN1RPA + 0.8100 LYP
 Using SG-1 standard quadrature grid
 SCF converges when DIIS error is below 1.0E-06
 Geometry optimization detected.  Setting ReadMinima to 0
 Setting SaveMinima to 0
 in ParallelAOLoop for JobNumber: 22 JobType: 22 
 ---------------------------------------
  Cycle       Energy         DIIS Error
 ---------------------------------------
    1    -268.3154509234      9.51E-05 Done RCA. Switching to DIIS
 in ParallelAOLoop for JobNumber: 22 JobType: 22 
    2    -268.3154687126      7.52E-06
 in ParallelAOLoop for JobNumber: 22 JobType: 22 
    3    -268.3154687531      9.46E-06
 in ParallelAOLoop for JobNumber: 22 JobType: 22 
    4    -268.3154688133      2.54E-06
 in ParallelAOLoop for JobNumber: 22 JobType: 22 
    5    -268.3154688177      1.33E-06
 in ParallelAOLoop for JobNumber: 22 JobType: 22 
    6    -268.3154688190      6.11E-07 Convergence criterion met
 ---------------------------------------
 SCF time:  CPU 8.25 s  wall 8.19 s
 SCF   energy in the final basis set = -268.3154688190
 Total energy in the final basis set = -268.3154688190
 No wavefunction analysis requested
 Calculating analytic gradient of the SCF energy
 in ParallelAOLoop for JobNumber: 111 JobType: 11 
 DoParallel is ON (aoloop_n) 
 in ParallelAOLoop for JobNumber: 122 JobType: 22 
 Gradient of SCF Energy
            1           2           3           4           5           6
    1  -0.0000038   0.0000118  -0.0000352  -0.0000076  -0.0000070  -0.0000217
    2   0.0000096  -0.0000294   0.0001019   0.0000019  -0.0000032  -0.0001198
    3   0.0000051   0.0000196   0.0000190  -0.0000193  -0.0000125  -0.0000718
            7           8           9          10          11
    1   0.0000770  -0.0000342   0.0000106   0.0000041   0.0000059
    2   0.0000699  -0.0000368   0.0000207  -0.0000099  -0.0000049
    3   0.0000605  -0.0000093   0.0000139  -0.0000035  -0.0000018
 Max gradient component =       1.198E-04
 RMS gradient           =       3.975E-05
 Gradient time:  CPU 3.29 s  wall 3.30 s
 Geometry Optimization Parameters
   NAtoms,    NIC,     NZ,  NCons,   NDum,   NFix, NCnnct, MaxDiis
       11      54       0       0       0       0       0       0

 Cartesian Hessian Update
 Hessian Updated using BFGS Update


** GEOMETRY OPTIMIZATION IN DELOCALIZED INTERNAL COORDINATES **
   Searching for a Minimum

   Optimization Cycle:   5

                       Coordinates (Angstroms)
     ATOM                X               Y               Z
      1  H         0.4179732378    0.9473668433   -0.3956210478
      2  C         0.2346389788    1.1128232859    0.6613167264
      3  C         0.6407528020    0.2392580121    1.5833955905
      4  H        -0.2869537483    2.0144500524    0.9600208085
      5  H         0.4604530936    0.4079098549    2.6461342100
      6  O         1.3008979776   -0.9141368835    1.2768806897
      7  H         1.5025755678   -1.3941240988    2.1028686396
      8  O         1.1920311818   -2.7336960997    3.4030910142
      9  C         0.3732249949   -3.4525054038    2.8689234114
     10  H        -0.0065692680   -4.3623669724    3.3694917333
     11  H        -0.0268988180   -3.2301965903    1.8635992243
   Point Group: c1    Number of degrees of freedom:    27


   Energy is   -268.315468819

 Hessian Updated using BFGS Update

 24 Hessian modes will be used to form the next step
  Hessian Eigenvalues:
     0.002872    0.006824    0.020436    0.028062    0.031231    0.031286
     0.038632    0.046746    0.069901    0.096416    0.148702    0.160086
     0.161659    0.177230    0.225475    0.330335    0.331968    0.348496
     0.355740    0.359825    0.481262    0.592104    0.620094    0.979119

 Minimum Search - Taking Simple RFO Step
 Searching for Lamda that Minimizes Along All modes
 Value Taken    Lamda =   0.00000000
 Step Taken.  Stepsize is  0.009321

                             Maximum     Tolerance    Cnvgd?
         Gradient           0.000059      0.000300     YES
         Displacement       0.006279      0.001200      NO
         Energy change     -0.000000      0.000001     YES


                       Distance Matrix (Angstroms)
             H (  1)   C (  2)   C (  3)   H (  4)   H (  5)   O (  6)
   C (  2)  1.085405
   C (  3)  2.113659  1.333519
   H (  4)  1.863694  1.083612  2.097747
   H (  5)  3.089513  2.118347  1.091038  2.445929
   O (  6)  2.653679  2.371581  1.363841  3.346385  2.080627
   H (  7)  3.591851  3.157613  1.918470  4.015830  2.151391  0.976380
   O (  8)  5.345989  4.819713  3.528974  5.540838  3.313288  2.800610
   C (  9)  5.478880  5.072964  3.918325  5.828151  3.867822  3.136637
   H ( 10)  6.523004  6.113109  4.978365  6.822607  4.847360  4.240139
   H ( 11)  4.770118  4.513946  3.544205  5.328264  3.753091  2.733389
             H (  7)   O (  8)   C (  9)   H ( 10)
   O (  8)  1.892477
   C (  9)  2.469657  1.213452
   H ( 10)  3.562628  2.022459  1.105740
   H ( 11)  2.401604  2.025423  1.104625  1.884127
 
 Final energy is   -268.315468818992     


 ******************************
 **  OPTIMIZATION CONVERGED  **
 ******************************

                       Coordinates (Angstroms)
     ATOM                X               Y               Z
      1  H         0.4179732378    0.9473668433   -0.3956210478
      2  C         0.2346389788    1.1128232859    0.6613167264
      3  C         0.6407528020    0.2392580121    1.5833955905
      4  H        -0.2869537483    2.0144500524    0.9600208085
      5  H         0.4604530936    0.4079098549    2.6461342100
      6  O         1.3008979776   -0.9141368835    1.2768806897
      7  H         1.5025755678   -1.3941240988    2.1028686396
      8  O         1.1920311818   -2.7336960997    3.4030910142
      9  C         0.3732249949   -3.4525054038    2.8689234114
     10  H        -0.0065692680   -4.3623669724    3.3694917333
     11  H        -0.0268988180   -3.2301965903    1.8635992243

Z-matrix Print:
$molecule
0 1
O 
H  1 0.976380
C  1 1.363841 2 109.001743
H  3 1.091038 1 115.444107 2 0.294527 0
C  3 1.333519 1 123.093549 2 -179.755609 0
H  5 1.083612 3 120.069553 1 -179.960457 0
H  5 1.085405 3 121.468398 1 0.338123 0
O  2 1.892477 1 153.547083 3 -100.018679 0
C  8 1.213452 2 103.155005 1 -11.976614 0
H  9 1.104625 8 121.724650 2 1.514927 0
H  9 1.105740 8 121.326815 2 -178.492616 0
$end

 No wavefunction analysis requested
 Total job time:  72.36s(wall), 69.85s(cpu) 
 Thu Nov 17 14:49:16 2016

======= MOLDEN-FORMATTED INPUT FILE FOLLOWS =======
[Molden Format]
[Atoms] (Angs)
  H      1    1      0.41797324      0.94736684     -0.39562105
  C      2    6      0.23463898      1.11282329      0.66131673
  C      3    6      0.64075280      0.23925801      1.58339559
  H      4    1     -0.28695375      2.01445005      0.96002081
  H      5    1      0.46045309      0.40790985      2.64613421
  O      6    8      1.30089798     -0.91413688      1.27688069
  H      7    1      1.50257557     -1.39412410      2.10286864
  O      8    8      1.19203118     -2.73369610      3.40309101
  C      9    6      0.37322499     -3.45250540      2.86892341
  H     10    1     -0.00656927     -4.36236697      3.36949173
  H     11    1     -0.02689882     -3.23019659      1.86359922
[GEOCONV]
energy
     -268.3154550595
     -268.3154669396
     -268.3154670977
     -268.3154684078
     -268.3154688190
max-force
        0.0015332761
        0.0001703520
        0.0003029669
        0.0001837095
        0.0000588684
max-step
        0.0055314798
        0.0112281031
        0.0096265137
        0.0060202600
        0.0062794929
[GEOMETRIES] (XYZ)
  11
Step 1
  H      0.41168300      0.93333600     -0.39397200
  C      0.23312800      1.10588300      0.66177400
  C      0.64175400      0.23723200      1.58678200
  H     -0.28560000      2.00877900      0.95846500
  H      0.46559200      0.41447700      2.64839900
  O      1.29815400     -0.91816100      1.28457300
  H      1.50352200     -1.39287200      2.10954200
  O      1.19446900     -2.73326200      3.40257300
  C      0.37360700     -3.44669600      2.86374300
  H     -0.00815600     -4.35920600      3.35786600
  H     -0.02602700     -3.21472800      1.86035600
  11
Step 2
  H      0.41251481      0.94033684     -0.39650440
  C      0.23394176      1.11110740      0.66045537
  C      0.64139375      0.24021078      1.58478727
  H     -0.28386740      2.01533116      0.95793161
  H      0.46574664      0.41456939      2.64748662
  O      1.29655307     -0.91635994      1.28143871
  H      1.50112262     -1.39360154      2.10831967
  O      1.19104152     -2.73440079      3.40491223
  C      0.37360453     -3.45190493      2.86664242
  H     -0.00538122     -4.36417466      3.36326699
  H     -0.02454408     -3.22633172      1.86136451
  11
Step 3
  H      0.41936746      0.94387621     -0.39529036
  C      0.23332055      1.10866782      0.66137840
  C      0.64096782      0.23663990      1.58436793
  H     -0.29224711      2.00831357      0.95933981
  H      0.45792193      0.40480873      2.64681285
  O      1.30590929     -0.91416558      1.27942208
  H      1.50845746     -1.39321149      2.10612436
  O      1.19934063     -2.73785424      3.40044820
  C      0.37283067     -3.44821355      2.86672753
  H     -0.00992223     -4.35842774      3.36433280
  H     -0.03382046     -3.21565163      1.86643741
  11
Step 4
  H      0.41747488      0.94555594     -0.39565041
  C      0.23426879      1.11154982      0.66125522
  C      0.64084986      0.23878565      1.58381966
  H     -0.28754046      2.01319308      0.95959826
  H      0.46071037      0.40811674      2.64651592
  O      1.30134412     -0.91444091      1.27777535
  H      1.50361367     -1.39353211      2.10439560
  O      1.19340962     -2.73465718      3.40287380
  C      0.37310922     -3.45143185      2.86822997
  H     -0.00708752     -4.36193569      3.36733186
  H     -0.02802657     -3.22642148      1.86395576
  11
Step 5
  H      0.41797324      0.94736684     -0.39562105
  C      0.23463898      1.11282329      0.66131673
  C      0.64075280      0.23925801      1.58339559
  H     -0.28695375      2.01445005      0.96002081
  H      0.46045309      0.40790985      2.64613421
  O      1.30089798     -0.91413688      1.27688069
  H      1.50257557     -1.39412410      2.10286864
  O      1.19203118     -2.73369610      3.40309101
  C      0.37322499     -3.45250540      2.86892341
  H     -0.00656927     -4.36236697      3.36949173
  H     -0.02689882     -3.23019659      1.86359922

======= END OF MOLDEN-FORMATTED INPUT FILE =======


        *************************************************************
        *                                                           *
        *  Thank you very much for using Q-Chem.  Have a nice day.  *
        *                                                           *
        *************************************************************


0 sent ACK to 0 
now end server 0 ... 
