14  
Step 4
  N      1.42404391     -0.81362238      0.16432836
  B      1.91120439      0.72094317     -0.22413883
  B     -2.35330285     -0.36214677     -0.26327912
  N     -1.42908691      0.56361934      0.22417517
  H      0.42248853     -0.81199165      0.38582555
  H      1.93282356     -1.17333424      0.97200968
  H      1.57373286     -1.46150641     -0.60975022
  H      1.69255432      1.37924732      0.77052984
  H      3.08350510      0.63770092     -0.50771637
  H      1.21661838      1.03584692     -1.17276368
  H     -2.23026857     -0.76469220     -1.38406550
  H     -3.22416240     -0.75303043      0.45855394
  H     -1.50321926      0.98359541      1.14279875
  H     -0.69850405      0.99200398     -0.33889060
  14
Step 18
  N      0.67997031     -1.68795249      1.58958866
  B      0.75189698      1.24383924     -0.89412778
  B     -0.94827614      0.38622710     -1.13772599
  N     -0.23816136      0.74860471      0.19709107
  H     -0.04839454     -2.25921752      2.01513996
  H      1.44294111     -1.63283109      2.26235003
  H      1.03293400     -2.21598277      0.79266125
  H      0.82297709      2.43387009     -1.00501563
  H      1.74137707      0.57557798     -0.99743196
  H      0.00591577      0.87195915     -1.95520338
  H     -1.90677014      1.05629824     -1.39466826
  H     -0.95908370     -0.78743159     -1.38072218
  H      0.07355444     -0.04777152      0.77821649
  H     -0.68183590      1.47227448      0.75078672
