Process 0 of 1 is on gollum427.lsa.umich.edu - thread support 0
initial socket setup ...start
initial socket setup ...done 
now start server 0 ... 
 Q-Chem 4.3.0 for Intel X86 EM64T Linux

 Parts of Q-Chem use Armadillo 5.200.1 (Boston Tea Smuggler).
 http://arma.sourceforge.net/

 Q-Chem begins on Thu Nov 17 17:22:33 2016  

Host: gollum427.lsa.umich.edu
0

     Scratch files written to /tmp/77280071.satyr/qchem7292//
 Parallel job on  1  processors

Checking the input file for inconsistencies...  ...done.

--------------------------------------------------------------
User input:
--------------------------------------------------------------
 $rem
 JOBTYPE OPT
 EXCHANGE B3LYP
! CORRELATION PBE
! UNRESTRICTED TRUE
 SCF_ALGORITHM rca_diis
 SCF_MAX_CYCLES 150
! BASIS LANL2DZ
! ECP LANL2DZ
 BASIS 6-31G*
 WAVEFUNCTION_ANALYSIS FALSE
 GEOM_OPT_MAX_CYCLES 300

scf_convergence 6

 SYM_IGNORE TRUE
 SYMMETRY   FALSE

molden_format true
 $end


$molecule
0 1
  C 3.339574 -1.122953 -0.244843
  C 2.320850 -0.057828 0.114057
  N 1.012596 -0.384479 -0.111002
  C -0.094840 0.501913 0.237267
  C -1.377988 -0.331746 0.086642
  N -2.550519 0.327613 0.292916
  C -3.857122 -0.339258 0.209891
  O 2.664357 1.051035 0.591618
  C -0.101894 1.787238 -0.616858
  O -1.327145 -1.555500 -0.194944
  H 4.061394 -0.703595 -0.952658
  H 2.891845 -2.018663 -0.682528
  H 3.894917 -1.405986 0.655287
  H 0.731232 -1.317114 -0.389857
  H 0.005879 0.788110 1.295608
  H -2.526837 1.318006 0.504742
  H -4.475210 0.103499 -0.578978
  H -4.393378 -0.271323 1.162397
  H -3.677052 -1.389028 -0.024646
  H -0.894064 2.479646 -0.307138
  H -0.243761 1.544711 -1.674427
  H 0.860333 2.292936 -0.488692
$end
--------------------------------------------------------------
 ----------------------------------------------------------------
             Standard Nuclear Orientation (Angstroms)
    I     Atom           X                Y                Z
 ----------------------------------------------------------------
    1      C       3.3395740000    -1.1229530000    -0.2448430000
    2      C       2.3208500000    -0.0578280000     0.1140570000
    3      N       1.0125960000    -0.3844790000    -0.1110020000
    4      C      -0.0948400000     0.5019130000     0.2372670000
    5      C      -1.3779880000    -0.3317460000     0.0866420000
    6      N      -2.5505190000     0.3276130000     0.2929160000
    7      C      -3.8571220000    -0.3392580000     0.2098910000
    8      O       2.6643570000     1.0510350000     0.5916180000
    9      C      -0.1018940000     1.7872380000    -0.6168580000
   10      O      -1.3271450000    -1.5555000000    -0.1949440000
   11      H       4.0613940000    -0.7035950000    -0.9526580000
   12      H       2.8918450000    -2.0186630000    -0.6825280000
   13      H       3.8949170000    -1.4059860000     0.6552870000
   14      H       0.7312320000    -1.3171140000    -0.3898570000
   15      H       0.0058790000     0.7881100000     1.2956080000
   16      H      -2.5268370000     1.3180060000     0.5047420000
   17      H      -4.4752100000     0.1034990000    -0.5789780000
   18      H      -4.3933780000    -0.2713230000     1.1623970000
   19      H      -3.6770520000    -1.3890280000    -0.0246460000
   20      H      -0.8940640000     2.4796460000    -0.3071380000
   21      H      -0.2437610000     1.5447110000    -1.6744270000
   22      H       0.8603330000     2.2929360000    -0.4886920000
 ----------------------------------------------------------------
 Nuclear Repulsion Energy =   546.6097680423 hartrees
 There are       39 alpha and       39 beta electrons
 Requested basis set is 6-31G(d)
 There are 64 shells and 174 basis functions

 Total QAlloc Memory Limit   2000 MB
 Mega-Array Size        61 MB
 MEM_STATIC part        62 MB
 in ParallelAOLoop for JobNumber:  2 JobType:  2 
 A cutoff of  1.0D-10 yielded   1641 shell pairs
 There are     12898 function pairs
 in ParallelAOLoop for JobNumber: 11 JobType: 11 
 DoParallel is ON (aoloop_n) 
 
 -------------------------------------------------------
 OpenMP Integral Computing Module                       
 Release: version 1.0, May 2013, Q-Chem Inc. Pittsburgh 
 -------------------------------------------------------
 Integral Job Info:
 Integral job number is                      11
 Integral operator is                         1
 short-range coefficients                     0
 long-range coefficients              100000000
 Omega coefficients                           0
 if combine SR and LR in K                    0
 Integral screening is                        0
 Integral computing path is                   2
 max size of driver memory is            800000
 size of driver memory is                593474
 size of scratch memory is              2260544
 max col of scratch BK array               1296
 max len of scratch array in speh3          155
 max len of scratch index in speh4           18
 max int batch size is                      520
 min int batch size is                       52
 fixed nKL is                                52
 max L of basis functions is                  2
 order of int derivative is                   0
 number of shells is                         64
 number of basis is                         174
 number of cartesian basis is               174
 number of contracted shell pairs          1641
 number of primitive shell pairs           5866
 maxK2 (contraction) of shell pair           36
 max number of K2 of shell pair               1
 max number of CS2 of shell pair            211
 max number of PS2 of shell pair            906
 mem total for path MDJ                   41800
 -------------------------------------------------------
 Smallest overlap matrix eigenvalue = 2.22E-03

 Scale SEOQF with 1.000000e-01/1.000000e-01/1.000000e-01

 Standard Electronic Orientation quadrupole field applied
 Nucleus-field energy     =     0.0000000196 hartrees
 length of FILE_MO_COEFS: 0 
 Guess from superposition of atomic densities
 Warning:  Energy on first SCF cycle will be non-variational
 A restricted hybrid HF-DFT SCF calculation will be
 performed using Relaxed Constraint Minimization + Pulay DIIS
 Exchange:     0.2000 Hartree-Fock + 0.0800 Slater + 0.7200 B88
 Correlation:  0.1900 VWN1RPA + 0.8100 LYP
 Using SG-1 standard quadrature grid
 SCF converges when DIIS error is below 1.0E-06
 in ParallelAOLoop for JobNumber: 22 JobType: 22 
 ---------------------------------------
  Cycle       Energy         DIIS Error
 ---------------------------------------
    1    -497.5510385544      5.96E-02
 in ParallelAOLoop for JobNumber: 22 JobType: 22 
    2    -495.5886082012      8.94E-03
 in ParallelAOLoop for JobNumber: 22 JobType: 22 
    3    -495.6775443782      3.07E-03
 in ParallelAOLoop for JobNumber: 22 JobType: 22 
    4    -495.8124628414      2.64E-03
 in ParallelAOLoop for JobNumber: 22 JobType: 22 
    5    -495.8292473023      4.74E-04 Done RCA. Switching to DIIS
 in ParallelAOLoop for JobNumber: 22 JobType: 22 
    6    -495.8480771685      7.09E-04
 in ParallelAOLoop for JobNumber: 22 JobType: 22 
    7    -495.8496862887      5.82E-05
 in ParallelAOLoop for JobNumber: 22 JobType: 22 
    8    -495.8496940225      3.19E-05
 in ParallelAOLoop for JobNumber: 22 JobType: 22 
    9    -495.8496969121      8.67E-06
 in ParallelAOLoop for JobNumber: 22 JobType: 22 
   10    -495.8496971322      2.26E-06
 in ParallelAOLoop for JobNumber: 22 JobType: 22 
   11    -495.8496971487      4.29E-07 Convergence criterion met
 ---------------------------------------
 SCF time:  CPU 93.92 s  wall 94.40 s
 SCF   energy in the final basis set = -495.8496971487
 Total energy in the final basis set = -495.8496971487
 No wavefunction analysis requested
 Calculating analytic gradient of the SCF energy
 in ParallelAOLoop for JobNumber: 111 JobType: 11 
 DoParallel is ON (aoloop_n) 
 in ParallelAOLoop for JobNumber: 122 JobType: 22 
 Gradient of SCF Energy
            1           2           3           4           5           6
    1  -0.0002073  -0.0015656  -0.0043189  -0.0041421   0.0030063   0.0033955
    2   0.0001314  -0.0295004  -0.0074384   0.0016114   0.0321718   0.0048213
    3   0.0002272  -0.0142110  -0.0009987   0.0012686   0.0063498   0.0004116
            7           8           9          10          11          12
    1  -0.0064492   0.0097643  -0.0020238   0.0018965   0.0002636   0.0001314
    2  -0.0027582   0.0313206   0.0010701  -0.0346167  -0.0002986   0.0010484
    3  -0.0000385   0.0136256  -0.0010585  -0.0071670  -0.0001726   0.0004188
           13          14          15          16          17          18
    1   0.0002877   0.0005757   0.0000952  -0.0003567  -0.0006018  -0.0004790
    2  -0.0003662   0.0008136  -0.0004996   0.0032592  -0.0006462  -0.0006144
    3  -0.0000967   0.0000891   0.0006815   0.0004780   0.0000346  -0.0004510
           19          20          21          22
    1  -0.0010798  -0.0001788   0.0002057   0.0017809
    2  -0.0007138   0.0001697  -0.0000907   0.0011258
    3  -0.0001157  -0.0000079   0.0004673   0.0002654
 Max gradient component =       3.462E-02
 RMS gradient           =       8.602E-03
 Gradient time:  CPU 27.40 s  wall 27.62 s
 Geometry Optimization Parameters
   NAtoms,    NIC,     NZ,  NCons,   NDum,   NFix, NCnnct, MaxDiis
       22     142       0       0       0       0       0       0


** GEOMETRY OPTIMIZATION IN DELOCALIZED INTERNAL COORDINATES **
   Searching for a Minimum

   Optimization Cycle:   1

                       Coordinates (Angstroms)
     ATOM                X               Y               Z
      1  C         3.3395740000   -1.1229530000   -0.2448430000
      2  C         2.3208500000   -0.0578280000    0.1140570000
      3  N         1.0125960000   -0.3844790000   -0.1110020000
      4  C        -0.0948400000    0.5019130000    0.2372670000
      5  C        -1.3779880000   -0.3317460000    0.0866420000
      6  N        -2.5505190000    0.3276130000    0.2929160000
      7  C        -3.8571220000   -0.3392580000    0.2098910000
      8  O         2.6643570000    1.0510350000    0.5916180000
      9  C        -0.1018940000    1.7872380000   -0.6168580000
     10  O        -1.3271450000   -1.5555000000   -0.1949440000
     11  H         4.0613940000   -0.7035950000   -0.9526580000
     12  H         2.8918450000   -2.0186630000   -0.6825280000
     13  H         3.8949170000   -1.4059860000    0.6552870000
     14  H         0.7312320000   -1.3171140000   -0.3898570000
     15  H         0.0058790000    0.7881100000    1.2956080000
     16  H        -2.5268370000    1.3180060000    0.5047420000
     17  H        -4.4752100000    0.1034990000   -0.5789780000
     18  H        -4.3933780000   -0.2713230000    1.1623970000
     19  H        -3.6770520000   -1.3890280000   -0.0246460000
     20  H        -0.8940640000    2.4796460000   -0.3071380000
     21  H        -0.2437610000    1.5447110000   -1.6744270000
     22  H         0.8603330000    2.2929360000   -0.4886920000
   Point Group: c1    Number of degrees of freedom:    60


   Energy is   -495.849697149


 Attempting to Generate Delocalized Internal Coordinates

 60 Hessian modes will be used to form the next step
  Hessian Eigenvalues:
     0.003457    0.004208    0.006479    0.006938    0.007627    0.010999
     0.012206    0.012252    0.013492    0.020001    0.020814    0.044085
     0.048954    0.054737    0.057994    0.067988    0.069838    0.071827
     0.075744    0.075867    0.158444    0.159996    0.160000    0.160000
     0.160000    0.160000    0.160000    0.160000    0.160000    0.160000
     0.160000    0.178509    0.179880    0.220001    0.220342    0.249975
     0.249998    0.250000    0.250000    0.282324    0.287346    0.306635
     0.335749    0.340427    0.341713    0.342191    0.342555    0.342922
     0.343000    0.343253    0.344851    0.347412    0.358250    0.368874
     0.454279    0.454624    0.515437    0.527598    0.807878    0.813288

 Minimum Search - Taking Simple RFO Step
 Searching for Lamda that Minimizes Along All modes
 Value Taken    Lamda =  -0.00427453
 Step Taken.  Stepsize is  0.221780

                             Maximum     Tolerance    Cnvgd?
         Gradient           0.028715      0.000300      NO
         Displacement       0.090139      0.001200      NO
         Energy change     *********      0.000001      NO


 New Cartesian Coordinates Obtained by Inverse Iteration

 Displacement from previous Coordinates is:  0.584709
 ----------------------------------------------------------------
             Standard Nuclear Orientation (Angstroms)
    I     Atom           X                Y                Z
 ----------------------------------------------------------------
    1      C       3.3206062979    -1.1301642347    -0.2029801236
    2      C       2.3002513279    -0.0600868301     0.1369932614
    3      N       1.0083493644    -0.3626492215    -0.1525651534
    4      C      -0.0954350328     0.5147962394     0.1907222525
    5      C      -1.3745755485    -0.3250653074     0.0426331334
    6      N      -2.5371857222     0.3104711087     0.3238554896
    7      C      -3.8312679852    -0.3502381480     0.2486906873
    8      O       2.6294178492     1.0140888931     0.6431941002
    9      C      -0.1045380474     1.7943354857    -0.6651377171
   10      O      -1.3279579669    -1.5089761649    -0.3011735962
   11      H       4.0760202147    -0.7001353122    -0.8676107716
   12      H       2.8860095168    -2.0139980651    -0.6803378757
   13      H       3.8319706643    -1.4356768343     0.7153810211
   14      H       0.7262557311    -1.2907961203    -0.4490174154
   15      H       0.0045458045     0.8021469905     1.2479558058
   16      H      -2.5075646190     1.2832275286     0.5913116506
   17      H      -4.4734024243     0.1375961203    -0.4928560232
   18      H      -4.3306677352    -0.3355562590     1.2236189290
   19      H      -3.6482049937    -1.3818882567    -0.0511168739
   20      H      -0.8927806135     2.4890158016    -0.3517834405
   21      H      -0.2538226276     1.5510467534    -1.7222331493
   22      H       0.8571435455     2.2957398331    -0.5436901908
 ----------------------------------------------------------------
 Nuclear Repulsion Energy =   549.6467426779 hartrees
 There are       39 alpha and       39 beta electrons
 Applying Cartesian multipole field
    Component          Value
    ---------          -----
     (2,0,0)        1.00000E-11
     (0,2,0)        2.00000E-11
     (0,0,2)       -3.00000E-11
 Nucleus-field energy     =     0.0000000191 hartrees
 length of FILE_MO_COEFS: 60900 
 Requested basis set is 6-31G(d)
 There are 64 shells and 174 basis functions
 in ParallelAOLoop for JobNumber:  2 JobType:  2 
 A cutoff of  1.0D-10 yielded   1645 shell pairs
 There are     12911 function pairs
 in ParallelAOLoop for JobNumber: 11 JobType: 11 
 DoParallel is ON (aoloop_n) 
 Smallest overlap matrix eigenvalue = 2.21E-03
 Guess MOs from SCF MO coefficient file
 Reading MOs from coefficient file
 Reading MOs from coefficient file
 A restricted hybrid HF-DFT SCF calculation will be
 performed using Relaxed Constraint Minimization + Pulay DIIS
 Exchange:     0.2000 Hartree-Fock + 0.0800 Slater + 0.7200 B88
 Correlation:  0.1900 VWN1RPA + 0.8100 LYP
 Using SG-1 standard quadrature grid
 SCF converges when DIIS error is below 1.0E-06
 Geometry optimization detected.  Setting ReadMinima to 0
 Setting SaveMinima to 0
 in ParallelAOLoop for JobNumber: 22 JobType: 22 
 Inaccurate integrated density:
   Number of electrons =    78
   Numerical integral  =    78.029893868883
   Relative error      =     0.0383254729 %
 Inaccurate integrated density:
   Number of electrons =    78
   Numerical integral  =    78.029893868883
   Relative error      =     0.0383254729 %
 ---------------------------------------
  Cycle       Energy         DIIS Error
 ---------------------------------------
    1    -495.8945817148      2.53E-03
 in ParallelAOLoop for JobNumber: 22 JobType: 22 
    2    -495.8516597773      3.36E-04 Done RCA. Switching to DIIS
 in ParallelAOLoop for JobNumber: 22 JobType: 22 
    3    -495.8514708431      4.51E-04
 in ParallelAOLoop for JobNumber: 22 JobType: 22 
    4    -495.8520740098      1.38E-04
 in ParallelAOLoop for JobNumber: 22 JobType: 22 
    5    -495.8521280005      3.38E-05
 in ParallelAOLoop for JobNumber: 22 JobType: 22 
    6    -495.8521313338      1.08E-05
 in ParallelAOLoop for JobNumber: 22 JobType: 22 
    7    -495.8521316524      4.27E-06
 in ParallelAOLoop for JobNumber: 22 JobType: 22 
    8    -495.8521317055      1.29E-06
 in ParallelAOLoop for JobNumber: 22 JobType: 22 
    9    -495.8521317102      5.37E-07 Convergence criterion met
 ---------------------------------------
 SCF time:  CPU 66.08 s  wall 66.18 s
 SCF   energy in the final basis set = -495.8521317102
 Total energy in the final basis set = -495.8521317102
 No wavefunction analysis requested
 Calculating analytic gradient of the SCF energy
 in ParallelAOLoop for JobNumber: 111 JobType: 11 
 DoParallel is ON (aoloop_n) 
 in ParallelAOLoop for JobNumber: 122 JobType: 22 
 Gradient of SCF Energy
            1           2           3           4           5           6
    1  -0.0007176  -0.0016317   0.0022217  -0.0020108  -0.0005856   0.0022602
    2   0.0017463  -0.0063545   0.0005902   0.0002911   0.0076182  -0.0017385
    3   0.0006916  -0.0042091   0.0019760  -0.0011669   0.0023214  -0.0011149
            7           8           9          10          11          12
    1  -0.0015732   0.0004604   0.0004972  -0.0003060  -0.0000440  -0.0002720
    2  -0.0012928   0.0033404   0.0006134  -0.0039077   0.0000125   0.0000609
    3  -0.0000767   0.0015345   0.0000787  -0.0006886   0.0000410   0.0000257
           13          14          15          16          17          18
    1  -0.0000478  -0.0000421   0.0000787  -0.0003282   0.0007131   0.0006347
    2   0.0000016  -0.0000183  -0.0011900  -0.0003218   0.0003707   0.0002981
    3  -0.0000410   0.0002888   0.0001924  -0.0002845  -0.0000130   0.0000902
           19          20          21          22
    1   0.0006382   0.0001403   0.0000694  -0.0001548
    2   0.0002189  -0.0000483  -0.0000845  -0.0002056
    3   0.0000250   0.0001290   0.0000729   0.0001275
 Max gradient component =       7.618E-03
 RMS gradient           =       1.700E-03
 Gradient time:  CPU 27.17 s  wall 27.25 s
 Geometry Optimization Parameters
   NAtoms,    NIC,     NZ,  NCons,   NDum,   NFix, NCnnct, MaxDiis
       22     142       0       0       0       0       0       0

 Cartesian Hessian Update
 Hessian Updated using BFGS Update


** GEOMETRY OPTIMIZATION IN DELOCALIZED INTERNAL COORDINATES **
   Searching for a Minimum

   Optimization Cycle:   2

                       Coordinates (Angstroms)
     ATOM                X               Y               Z
      1  C         3.3206062979   -1.1301642347   -0.2029801236
      2  C         2.3002513279   -0.0600868301    0.1369932614
      3  N         1.0083493644   -0.3626492215   -0.1525651534
      4  C        -0.0954350328    0.5147962394    0.1907222525
      5  C        -1.3745755485   -0.3250653074    0.0426331334
      6  N        -2.5371857222    0.3104711087    0.3238554896
      7  C        -3.8312679852   -0.3502381480    0.2486906873
      8  O         2.6294178492    1.0140888931    0.6431941002
      9  C        -0.1045380474    1.7943354857   -0.6651377171
     10  O        -1.3279579669   -1.5089761649   -0.3011735962
     11  H         4.0760202147   -0.7001353122   -0.8676107716
     12  H         2.8860095168   -2.0139980651   -0.6803378757
     13  H         3.8319706643   -1.4356768343    0.7153810211
     14  H         0.7262557311   -1.2907961203   -0.4490174154
     15  H         0.0045458045    0.8021469905    1.2479558058
     16  H        -2.5075646190    1.2832275286    0.5913116506
     17  H        -4.4734024243    0.1375961203   -0.4928560232
     18  H        -4.3306677352   -0.3355562590    1.2236189290
     19  H        -3.6482049937   -1.3818882567   -0.0511168739
     20  H        -0.8927806135    2.4890158016   -0.3517834405
     21  H        -0.2538226276    1.5510467534   -1.7222331493
     22  H         0.8571435455    2.2957398331   -0.5436901908
   Point Group: c1    Number of degrees of freedom:    60


   Energy is   -495.852131710

 Hessian Updated using BFGS Update

 53 Hessian modes will be used to form the next step
  Hessian Eigenvalues:
     0.003463    0.004158    0.006479    0.006938    0.007357    0.010998
     0.012206    0.012252    0.013381    0.020003    0.020782    0.044091
     0.048987    0.054739    0.057996    0.068101    0.069840    0.071827
     0.075720    0.075867    0.158454    0.159505    0.159997    0.162185
     0.178776    0.179692    0.219090    0.220275    0.245491    0.249995
     0.250000    0.250224    0.282312    0.286958    0.305507    0.335776
     0.340432    0.341684    0.342160    0.342556    0.342998    0.343184
     0.343266    0.344910    0.347434    0.362034    0.369945    0.454257
     0.455326    0.520491    0.544888    0.756891    0.811066

 Minimum Search - Taking Simple RFO Step
 Searching for Lamda that Minimizes Along All modes
 Value Taken    Lamda =  -0.00065279
 Step Taken.  Stepsize is  0.252408

                             Maximum     Tolerance    Cnvgd?
         Gradient           0.003460      0.000300      NO
         Displacement       0.112321      0.001200      NO
         Energy change     -0.002435      0.000001      NO


 New Cartesian Coordinates Obtained by Inverse Iteration

 Displacement from previous Coordinates is:  0.665532
 ----------------------------------------------------------------
             Standard Nuclear Orientation (Angstroms)
    I     Atom           X                Y                Z
 ----------------------------------------------------------------
    1      C       3.3268921236    -1.1343044417    -0.1595896131
    2      C       2.2973971298    -0.0645866492     0.1728721759
    3      N       1.0189600081    -0.3472909521    -0.1967730866
    4      C      -0.0945535284     0.5181237128     0.1401096707
    5      C      -1.3749013171    -0.3275393180    -0.0056582958
    6      N      -2.5241617388     0.2958518574     0.3606402920
    7      C      -3.8277849788    -0.3445202991     0.2954751282
    8      O       2.6096279139     0.9813589259     0.7340233186
    9      C      -0.1181663132     1.7917779091    -0.7235559616
   10      O      -1.3382198778    -1.4838617221    -0.4191512698
   11      H       4.1184471666    -0.6854425293    -0.7673737395
   12      H       2.9126046462    -1.9954631490    -0.6932936771
   13      H       3.7890766164    -1.4800545383     0.7705911961
   14      H       0.7469590570    -1.2658691987    -0.5306970495
   15      H      -0.0001234997     0.8179806565     1.1945152386
   16      H      -2.4719710885     1.2490035424     0.6889105509
   17      H      -4.4970312872     0.1938363410    -0.3852782834
   18      H      -4.2915821377    -0.3903562496     1.2873031197
   19      H      -3.6746351010    -1.3571529616    -0.0774229703
   20      H      -0.9164735929     2.4780718339    -0.4168097529
   21      H      -0.2636661919     1.5402494071    -1.7794236319
   22      H       0.8364729912     2.3074218227    -0.6055593593
 ----------------------------------------------------------------
 Nuclear Repulsion Energy =   549.0327785339 hartrees
 There are       39 alpha and       39 beta electrons
 Applying Cartesian multipole field
    Component          Value
    ---------          -----
     (2,0,0)        1.00000E-11
     (0,2,0)        2.00000E-11
     (0,0,2)       -3.00000E-11
 Nucleus-field energy     =     0.0000000187 hartrees
 length of FILE_MO_COEFS: 60900 
 Requested basis set is 6-31G(d)
 There are 64 shells and 174 basis functions
 in ParallelAOLoop for JobNumber:  2 JobType:  2 
 A cutoff of  1.0D-10 yielded   1639 shell pairs
 There are     12884 function pairs
 in ParallelAOLoop for JobNumber: 11 JobType: 11 
 DoParallel is ON (aoloop_n) 
 Smallest overlap matrix eigenvalue = 2.32E-03
 Guess MOs from SCF MO coefficient file
 Reading MOs from coefficient file
 Reading MOs from coefficient file
 A restricted hybrid HF-DFT SCF calculation will be
 performed using Relaxed Constraint Minimization + Pulay DIIS
 Exchange:     0.2000 Hartree-Fock + 0.0800 Slater + 0.7200 B88
 Correlation:  0.1900 VWN1RPA + 0.8100 LYP
 Using SG-1 standard quadrature grid
 SCF converges when DIIS error is below 1.0E-06
 Geometry optimization detected.  Setting ReadMinima to 0
 Setting SaveMinima to 0
 in ParallelAOLoop for JobNumber: 22 JobType: 22 
 Inaccurate integrated density:
   Number of electrons =    78
   Numerical integral  =    77.977553662799
   Relative error      =    -0.0287773554 %
 Inaccurate integrated density:
   Number of electrons =    78
   Numerical integral  =    77.977553662799
   Relative error      =    -0.0287773554 %
 ---------------------------------------
  Cycle       Energy         DIIS Error
 ---------------------------------------
    1    -495.8399047903      2.62E-03
 in ParallelAOLoop for JobNumber: 22 JobType: 22 
    2    -495.8523211129      2.03E-04 Done RCA. Switching to DIIS
 in ParallelAOLoop for JobNumber: 22 JobType: 22 
    3    -495.8522188890      3.29E-04
 in ParallelAOLoop for JobNumber: 22 JobType: 22 
    4    -495.8525374699      6.99E-05
 in ParallelAOLoop for JobNumber: 22 JobType: 22 
    5    -495.8525508318      1.85E-05
 in ParallelAOLoop for JobNumber: 22 JobType: 22 
    6    -495.8525519302      7.64E-06
 in ParallelAOLoop for JobNumber: 22 JobType: 22 
    7    -495.8525521106      2.40E-06
 in ParallelAOLoop for JobNumber: 22 JobType: 22 
    8    -495.8525521257      7.07E-07 Convergence criterion met
 ---------------------------------------
 SCF time:  CPU 60.55 s  wall 60.85 s
 SCF   energy in the final basis set = -495.8525521257
 Total energy in the final basis set = -495.8525521257
 No wavefunction analysis requested
 Calculating analytic gradient of the SCF energy
 in ParallelAOLoop for JobNumber: 111 JobType: 11 
 DoParallel is ON (aoloop_n) 
 in ParallelAOLoop for JobNumber: 122 JobType: 22 
 Gradient of SCF Energy
            1           2           3           4           5           6
    1  -0.0001875  -0.0013157   0.0026013  -0.0000034  -0.0012479   0.0011704
    2   0.0005586   0.0013112   0.0005881  -0.0000169  -0.0003348  -0.0005545
    3   0.0001899  -0.0005510   0.0010971  -0.0020650   0.0001085  -0.0004443
            7           8           9          10          11          12
    1  -0.0004677   0.0001579   0.0005820  -0.0001296   0.0000088   0.0000274
    2  -0.0004664  -0.0018488   0.0003942   0.0013393  -0.0000140  -0.0001611
    3   0.0000374  -0.0006098   0.0005899   0.0008125   0.0000643  -0.0000271
           13          14          15          16          17          18
    1   0.0000047  -0.0003314  -0.0005699  -0.0001273   0.0001384   0.0000869
    2  -0.0000139  -0.0001820  -0.0004511  -0.0002632   0.0000840   0.0001637
    3  -0.0000353   0.0003093   0.0004998  -0.0003227   0.0001095  -0.0000268
           19          20          21          22
    1   0.0001112   0.0000200  -0.0000990  -0.0004295
    2   0.0002440   0.0000719  -0.0000938  -0.0003542
    3   0.0000582   0.0001179   0.0000108   0.0000770
 Max gradient component =       2.601E-03
 RMS gradient           =       6.695E-04
 Gradient time:  CPU 25.81 s  wall 26.02 s
 Geometry Optimization Parameters
   NAtoms,    NIC,     NZ,  NCons,   NDum,   NFix, NCnnct, MaxDiis
       22     142       0       0       0       0       0       0

 Cartesian Hessian Update
 Hessian Updated using BFGS Update


** GEOMETRY OPTIMIZATION IN DELOCALIZED INTERNAL COORDINATES **
   Searching for a Minimum

   Optimization Cycle:   3

                       Coordinates (Angstroms)
     ATOM                X               Y               Z
      1  C         3.3268921236   -1.1343044417   -0.1595896131
      2  C         2.2973971298   -0.0645866492    0.1728721759
      3  N         1.0189600081   -0.3472909521   -0.1967730866
      4  C        -0.0945535284    0.5181237128    0.1401096707
      5  C        -1.3749013171   -0.3275393180   -0.0056582958
      6  N        -2.5241617388    0.2958518574    0.3606402920
      7  C        -3.8277849788   -0.3445202991    0.2954751282
      8  O         2.6096279139    0.9813589259    0.7340233186
      9  C        -0.1181663132    1.7917779091   -0.7235559616
     10  O        -1.3382198778   -1.4838617221   -0.4191512698
     11  H         4.1184471666   -0.6854425293   -0.7673737395
     12  H         2.9126046462   -1.9954631490   -0.6932936771
     13  H         3.7890766164   -1.4800545383    0.7705911961
     14  H         0.7469590570   -1.2658691987   -0.5306970495
     15  H        -0.0001234997    0.8179806565    1.1945152386
     16  H        -2.4719710885    1.2490035424    0.6889105509
     17  H        -4.4970312872    0.1938363410   -0.3852782834
     18  H        -4.2915821377   -0.3903562496    1.2873031197
     19  H        -3.6746351010   -1.3571529616   -0.0774229703
     20  H        -0.9164735929    2.4780718339   -0.4168097529
     21  H        -0.2636661919    1.5402494071   -1.7794236319
     22  H         0.8364729912    2.3074218227   -0.6055593593
   Point Group: c1    Number of degrees of freedom:    60


   Energy is   -495.852552126

 Hessian Updated using BFGS Update

 54 Hessian modes will be used to form the next step
  Hessian Eigenvalues:
     0.002825    0.003515    0.006476    0.006573    0.006939    0.011004
     0.012211    0.012252    0.013343    0.020042    0.020556    0.045434
     0.049927    0.054728    0.057992    0.067740    0.069839    0.071862
     0.075792    0.075867    0.157880    0.159410    0.159997    0.160216
     0.161982    0.177611    0.182378    0.215834    0.222718    0.244918
     0.250000    0.250027    0.265142    0.282685    0.294709    0.306796
     0.336423    0.340496    0.341630    0.342140    0.342555    0.342999
     0.343218    0.343477    0.344914    0.347495    0.362468    0.371561
     0.454349    0.455200    0.519180    0.534949    0.808468    0.830150

 Minimum Search - Taking Simple RFO Step
 Searching for Lamda that Minimizes Along All modes
 Value Taken    Lamda =  -0.00029168
 Step Taken.  Stepsize is  0.267254

                             Maximum     Tolerance    Cnvgd?
         Gradient           0.001945      0.000300      NO
         Displacement       0.123660      0.001200      NO
         Energy change     -0.000420      0.000001      NO


 New Cartesian Coordinates Obtained by Inverse Iteration

 Displacement from previous Coordinates is:  0.628999
 ----------------------------------------------------------------
             Standard Nuclear Orientation (Angstroms)
    I     Atom           X                Y                Z
 ----------------------------------------------------------------
    1      C       3.3191681004    -1.1435491859    -0.1195085395
    2      C       2.2854200983    -0.0720964609     0.2042689352
    3      N       1.0187056423    -0.3319939918    -0.2269014396
    4      C      -0.0936350730     0.5344706378     0.1040558032
    5      C      -1.3718155186    -0.3155369757    -0.0412764970
    6      N      -2.5095478796     0.2804762474     0.4069731614
    7      C      -3.8159161803    -0.3511545552     0.3332664012
    8      O       2.5819761837     0.9604995606     0.7966376984
    9      C      -0.1217187455     1.7945695962    -0.7806791131
   10      O      -1.3456392720    -1.4383409122    -0.5372596196
   11      H       4.1349288374    -0.6860332634    -0.6876931464
   12      H       2.9173827235    -1.9867566284    -0.6897770424
   13      H       3.7453217738    -1.5166790605     0.8173491259
   14      H       0.7514146039    -1.2404179306    -0.5905996060
   15      H       0.0049551035     0.8495774775     1.1529391285
   16      H      -2.4425343786     1.2057126785     0.8063010592
   17      H      -4.5065777769     0.2368782984    -0.2824839688
   18      H      -4.2504485492    -0.4758834104     1.3318319053
   19      H      -3.6796978618    -1.3326023702    -0.1219337022
   20      H      -0.9308947302     2.4765986749    -0.4939303966
   21      H      -0.2542468261     1.5252240388    -1.8338683736
   22      H       0.8265667250     2.3242715349    -0.6638577735
 ----------------------------------------------------------------
 Nuclear Repulsion Energy =   548.9089791875 hartrees
 There are       39 alpha and       39 beta electrons
 Applying Cartesian multipole field
    Component          Value
    ---------          -----
     (2,0,0)        1.00000E-11
     (0,2,0)        2.00000E-11
     (0,0,2)       -3.00000E-11
 Nucleus-field energy     =     0.0000000182 hartrees
 length of FILE_MO_COEFS: 60900 
 Requested basis set is 6-31G(d)
 There are 64 shells and 174 basis functions
 in ParallelAOLoop for JobNumber:  2 JobType:  2 
 A cutoff of  1.0D-10 yielded   1639 shell pairs
 There are     12846 function pairs
 in ParallelAOLoop for JobNumber: 11 JobType: 11 
 DoParallel is ON (aoloop_n) 
 Smallest overlap matrix eigenvalue = 2.40E-03
 Guess MOs from SCF MO coefficient file
 Reading MOs from coefficient file
 Reading MOs from coefficient file
 A restricted hybrid HF-DFT SCF calculation will be
 performed using Relaxed Constraint Minimization + Pulay DIIS
 Exchange:     0.2000 Hartree-Fock + 0.0800 Slater + 0.7200 B88
 Correlation:  0.1900 VWN1RPA + 0.8100 LYP
 Using SG-1 standard quadrature grid
 SCF converges when DIIS error is below 1.0E-06
 Geometry optimization detected.  Setting ReadMinima to 0
 Setting SaveMinima to 0
 in ParallelAOLoop for JobNumber: 22 JobType: 22 
 Inaccurate integrated density:
   Number of electrons =    78
   Numerical integral  =    77.973376469545
   Relative error      =    -0.0341327314 %
 Inaccurate integrated density:
   Number of electrons =    78
   Numerical integral  =    77.973376469545
   Relative error      =    -0.0341327314 %
 ---------------------------------------
  Cycle       Energy         DIIS Error
 ---------------------------------------
    1    -495.8362223135      2.47E-03
 in ParallelAOLoop for JobNumber: 22 JobType: 22 
    2    -495.8525134180      1.91E-04 Done RCA. Switching to DIIS
 in ParallelAOLoop for JobNumber: 22 JobType: 22 
    3    -495.8525486563      2.33E-04
 in ParallelAOLoop for JobNumber: 22 JobType: 22 
    4    -495.8527048486      8.96E-05
 in ParallelAOLoop for JobNumber: 22 JobType: 22 
    5    -495.8527265887      2.45E-05
 in ParallelAOLoop for JobNumber: 22 JobType: 22 
    6    -495.8527284914      6.00E-06
 in ParallelAOLoop for JobNumber: 22 JobType: 22 
    7    -495.8527286056      1.91E-06
 in ParallelAOLoop for JobNumber: 22 JobType: 22 
    8    -495.8527286170      7.68E-07 Convergence criterion met
 ---------------------------------------
 SCF time:  CPU 55.05 s  wall 55.01 s
 SCF   energy in the final basis set = -495.8527286170
 Total energy in the final basis set = -495.8527286170
 No wavefunction analysis requested
 Calculating analytic gradient of the SCF energy
 in ParallelAOLoop for JobNumber: 111 JobType: 11 
 DoParallel is ON (aoloop_n) 
 in ParallelAOLoop for JobNumber: 122 JobType: 22 
 Gradient of SCF Energy
            1           2           3           4           5           6
    1   0.0002621  -0.0005207  -0.0007341   0.0009841   0.0001350  -0.0003698
    2  -0.0004757   0.0019568   0.0005745   0.0006840  -0.0035194   0.0005757
    3  -0.0006252   0.0023004  -0.0008896  -0.0008879  -0.0002015   0.0001939
            7           8           9          10          11          12
    1   0.0004728  -0.0001372   0.0005328   0.0002892   0.0000848   0.0002078
    2   0.0002073  -0.0013214  -0.0003196   0.0017490  -0.0000405  -0.0001068
    3   0.0000922  -0.0013415   0.0003581   0.0004180   0.0000005  -0.0000669
           13          14          15          16          17          18
    1  -0.0000453  -0.0001022  -0.0005910  -0.0000994  -0.0001653  -0.0000867
    2   0.0000463  -0.0002928  -0.0001791   0.0001016  -0.0000830  -0.0000020
    3   0.0000345   0.0003799   0.0005683  -0.0001527   0.0000084   0.0000051
           19          20          21          22
    1  -0.0001535   0.0002486  -0.0000992  -0.0001128
    2   0.0000069   0.0001607   0.0001706   0.0001069
    3  -0.0000113  -0.0000903  -0.0001045   0.0000122
 Max gradient component =       3.519E-03
 RMS gradient           =       7.373E-04
 Gradient time:  CPU 26.30 s  wall 26.36 s
 Geometry Optimization Parameters
   NAtoms,    NIC,     NZ,  NCons,   NDum,   NFix, NCnnct, MaxDiis
       22     142       0       0       0       0       0       0

 Cartesian Hessian Update
 Hessian Updated using BFGS Update


** GEOMETRY OPTIMIZATION IN DELOCALIZED INTERNAL COORDINATES **
   Searching for a Minimum

   Optimization Cycle:   4

                       Coordinates (Angstroms)
     ATOM                X               Y               Z
      1  C         3.3191681004   -1.1435491859   -0.1195085395
      2  C         2.2854200983   -0.0720964609    0.2042689352
      3  N         1.0187056423   -0.3319939918   -0.2269014396
      4  C        -0.0936350730    0.5344706378    0.1040558032
      5  C        -1.3718155186   -0.3155369757   -0.0412764970
      6  N        -2.5095478796    0.2804762474    0.4069731614
      7  C        -3.8159161803   -0.3511545552    0.3332664012
      8  O         2.5819761837    0.9604995606    0.7966376984
      9  C        -0.1217187455    1.7945695962   -0.7806791131
     10  O        -1.3456392720   -1.4383409122   -0.5372596196
     11  H         4.1349288374   -0.6860332634   -0.6876931464
     12  H         2.9173827235   -1.9867566284   -0.6897770424
     13  H         3.7453217738   -1.5166790605    0.8173491259
     14  H         0.7514146039   -1.2404179306   -0.5905996060
     15  H         0.0049551035    0.8495774775    1.1529391285
     16  H        -2.4425343786    1.2057126785    0.8063010592
     17  H        -4.5065777769    0.2368782984   -0.2824839688
     18  H        -4.2504485492   -0.4758834104    1.3318319053
     19  H        -3.6796978618   -1.3326023702   -0.1219337022
     20  H        -0.9308947302    2.4765986749   -0.4939303966
     21  H        -0.2542468261    1.5252240388   -1.8338683736
     22  H         0.8265667250    2.3242715349   -0.6638577735
   Point Group: c1    Number of degrees of freedom:    60


   Energy is   -495.852728617

 Hessian Updated using BFGS Update

 55 Hessian modes will be used to form the next step
  Hessian Eigenvalues:
     0.001714    0.003536    0.006183    0.006482    0.006950    0.011210
     0.012251    0.013210    0.015117    0.020175    0.020284    0.046252
     0.049368    0.054760    0.058014    0.067575    0.069836    0.071870
     0.075784    0.075868    0.157502    0.159425    0.159998    0.160049
     0.160711    0.163520    0.177816    0.186006    0.219965    0.225983
     0.247984    0.250000    0.255319    0.263464    0.283070    0.293362
     0.314182    0.336225    0.340530    0.341757    0.342189    0.342558
     0.342992    0.343252    0.343602    0.344919    0.347510    0.362717
     0.381469    0.454273    0.455333    0.518627    0.554818    0.798720
     0.812489

 Minimum Search - Taking Simple RFO Step
 Searching for Lamda that Minimizes Along All modes
 Value Taken    Lamda =  -0.00018744
 Step Taken.  Stepsize is  0.252103

                             Maximum     Tolerance    Cnvgd?
         Gradient           0.001666      0.000300      NO
         Displacement       0.122026      0.001200      NO
         Energy change     -0.000176      0.000001      NO


 New Cartesian Coordinates Obtained by Inverse Iteration

 Displacement from previous Coordinates is:  0.635945
 ----------------------------------------------------------------
             Standard Nuclear Orientation (Angstroms)
    I     Atom           X                Y                Z
 ----------------------------------------------------------------
    1      C       3.3099361422    -1.1546379584    -0.0797592695
    2      C       2.2760025257    -0.0791365423     0.2279338518
    3      N       1.0239492168    -0.3125459662    -0.2623643161
    4      C      -0.0915469608     0.5524404326     0.0641353816
    5      C      -1.3698658562    -0.2963936968    -0.0794624575
    6      N      -2.4921838976     0.2679841901     0.4445631416
    7      C      -3.7999771228    -0.3597493965     0.3735318264
    8      O       2.5484452214     0.9222217314     0.8837624524
    9      C      -0.1312407846     1.8005521041    -0.8379325495
   10      O      -1.3580760096    -1.3944758766    -0.6298104106
   11      H       4.1570722159    -0.6913211538    -0.5947574207
   12      H       2.9223106009    -1.9719599295    -0.6953807196
   13      H       3.6862021340    -1.5642748396     0.8632466622
   14      H       0.7652611190    -1.2036588683    -0.6714335420
   15      H       0.0155080845     0.8816215362     1.1065123766
   16      H      -2.4094017147     1.1645284617     0.9027224532
   17      H      -4.5110914308     0.2657733433    -0.1789946822
   18      H      -4.2014510470    -0.5524226951     1.3752540886
   19      H      -3.6791724625    -1.3089925650    -0.1499734968
   20      H      -0.9558037032     2.4711395110    -0.5680015475
   21      H      -0.2498654575     1.5130049574    -1.8878450878
   22      H       0.8081561869     2.3475372202    -0.7220927344
 ----------------------------------------------------------------
 Nuclear Repulsion Energy =   548.6921897086 hartrees
 There are       39 alpha and       39 beta electrons
 Applying Cartesian multipole field
    Component          Value
    ---------          -----
     (2,0,0)        1.00000E-11
     (0,2,0)        2.00000E-11
     (0,0,2)       -3.00000E-11
 Nucleus-field energy     =     0.0000000175 hartrees
 length of FILE_MO_COEFS: 60900 
 Requested basis set is 6-31G(d)
 There are 64 shells and 174 basis functions
 in ParallelAOLoop for JobNumber:  2 JobType:  2 
 A cutoff of  1.0D-10 yielded   1638 shell pairs
 There are     12878 function pairs
 in ParallelAOLoop for JobNumber: 11 JobType: 11 
 DoParallel is ON (aoloop_n) 
 Smallest overlap matrix eigenvalue = 2.47E-03
 Guess MOs from SCF MO coefficient file
 Reading MOs from coefficient file
 Reading MOs from coefficient file
 A restricted hybrid HF-DFT SCF calculation will be
 performed using Relaxed Constraint Minimization + Pulay DIIS
 Exchange:     0.2000 Hartree-Fock + 0.0800 Slater + 0.7200 B88
 Correlation:  0.1900 VWN1RPA + 0.8100 LYP
 Using SG-1 standard quadrature grid
 SCF converges when DIIS error is below 1.0E-06
 Geometry optimization detected.  Setting ReadMinima to 0
 Setting SaveMinima to 0
 in ParallelAOLoop for JobNumber: 22 JobType: 22 
 Inaccurate integrated density:
   Number of electrons =    78
   Numerical integral  =    77.970585873457
   Relative error      =    -0.0377104186 %
 Inaccurate integrated density:
   Number of electrons =    78
   Numerical integral  =    77.970585873457
   Relative error      =    -0.0377104186 %
 ---------------------------------------
  Cycle       Energy         DIIS Error
 ---------------------------------------
    1    -495.8359462188      2.42E-03
 in ParallelAOLoop for JobNumber: 22 JobType: 22 
    2    -495.8525797836      1.77E-04 Done RCA. Switching to DIIS
 in ParallelAOLoop for JobNumber: 22 JobType: 22 
    3    -495.8527030658      1.42E-04
 in ParallelAOLoop for JobNumber: 22 JobType: 22 
    4    -495.8527715285      3.83E-05
 in ParallelAOLoop for JobNumber: 22 JobType: 22 
    5    -495.8527725258      3.64E-05
 in ParallelAOLoop for JobNumber: 22 JobType: 22 
    6    -495.8527763882      6.21E-06
 in ParallelAOLoop for JobNumber: 22 JobType: 22 
    7    -495.8527765047      1.62E-06
 in ParallelAOLoop for JobNumber: 22 JobType: 22 
    8    -495.8527765134      5.03E-07 Convergence criterion met
 ---------------------------------------
 SCF time:  CPU 58.07 s  wall 58.42 s
 SCF   energy in the final basis set = -495.8527765134
 Total energy in the final basis set = -495.8527765134
 No wavefunction analysis requested
 Calculating analytic gradient of the SCF energy
 in ParallelAOLoop for JobNumber: 111 JobType: 11 
 DoParallel is ON (aoloop_n) 
 in ParallelAOLoop for JobNumber: 122 JobType: 22 
 Gradient of SCF Energy
            1           2           3           4           5           6
    1   0.0001362   0.0013788  -0.0016165   0.0013222   0.0001220  -0.0009727
    2  -0.0013683   0.0026590  -0.0002200   0.0007053  -0.0014052   0.0001745
    3   0.0003947  -0.0015478  -0.0008774   0.0010614  -0.0025756   0.0008249
            7           8           9          10          11          12
    1   0.0007916  -0.0005806  -0.0000116  -0.0000565  -0.0001500   0.0000345
    2   0.0004973  -0.0008115  -0.0005782   0.0001929   0.0001953   0.0000477
    3   0.0001796   0.0009151   0.0000944   0.0009459   0.0000432   0.0000709
           13          14          15          16          17          18
    1   0.0001836   0.0000514  -0.0003107   0.0000879  -0.0001501  -0.0001510
    2  -0.0001955  -0.0003512   0.0002898   0.0001045  -0.0000917  -0.0001059
    3   0.0000338   0.0004054   0.0002130   0.0001178  -0.0001119   0.0000345
           19          20          21          22
    1  -0.0001823   0.0000342  -0.0000748   0.0001145
    2  -0.0001409   0.0001561   0.0001098   0.0001360
    3  -0.0000841  -0.0001262  -0.0000376   0.0000259
 Max gradient component =       2.659E-03
 RMS gradient           =       7.328E-04
 Gradient time:  CPU 25.21 s  wall 25.31 s
 Geometry Optimization Parameters
   NAtoms,    NIC,     NZ,  NCons,   NDum,   NFix, NCnnct, MaxDiis
       22     142       0       0       0       0       0       0

 Cartesian Hessian Update
 Hessian Updated using BFGS Update


** GEOMETRY OPTIMIZATION IN DELOCALIZED INTERNAL COORDINATES **
   Searching for a Minimum

   Optimization Cycle:   5

                       Coordinates (Angstroms)
     ATOM                X               Y               Z
      1  C         3.3099361422   -1.1546379584   -0.0797592695
      2  C         2.2760025257   -0.0791365423    0.2279338518
      3  N         1.0239492168   -0.3125459662   -0.2623643161
      4  C        -0.0915469608    0.5524404326    0.0641353816
      5  C        -1.3698658562   -0.2963936968   -0.0794624575
      6  N        -2.4921838976    0.2679841901    0.4445631416
      7  C        -3.7999771228   -0.3597493965    0.3735318264
      8  O         2.5484452214    0.9222217314    0.8837624524
      9  C        -0.1312407846    1.8005521041   -0.8379325495
     10  O        -1.3580760096   -1.3944758766   -0.6298104106
     11  H         4.1570722159   -0.6913211538   -0.5947574207
     12  H         2.9223106009   -1.9719599295   -0.6953807196
     13  H         3.6862021340   -1.5642748396    0.8632466622
     14  H         0.7652611190   -1.2036588683   -0.6714335420
     15  H         0.0155080845    0.8816215362    1.1065123766
     16  H        -2.4094017147    1.1645284617    0.9027224532
     17  H        -4.5110914308    0.2657733433   -0.1789946822
     18  H        -4.2014510470   -0.5524226951    1.3752540886
     19  H        -3.6791724625   -1.3089925650   -0.1499734968
     20  H        -0.9558037032    2.4711395110   -0.5680015475
     21  H        -0.2498654575    1.5130049574   -1.8878450878
     22  H         0.8081561869    2.3475372202   -0.7220927344
   Point Group: c1    Number of degrees of freedom:    60


   Energy is   -495.852776513

 Hessian Updated using BFGS Update

 56 Hessian modes will be used to form the next step
  Hessian Eigenvalues:
     0.001518    0.003543    0.005996    0.006481    0.006946    0.011264
     0.012250    0.013577    0.019535    0.020045    0.031455    0.046612
     0.048939    0.054748    0.057959    0.068113    0.070140    0.071906
     0.075729    0.075904    0.157276    0.159189    0.159766    0.159998
     0.160495    0.162455    0.163065    0.171847    0.183368    0.219295
     0.225068    0.248700    0.250029    0.254139    0.263506    0.283128
     0.292088    0.307014    0.334911    0.340594    0.341701    0.342171
     0.342633    0.343054    0.343256    0.343625    0.344987    0.347618
     0.362939    0.377594    0.454169    0.455324    0.519940    0.547581
     0.784424    0.812183

 Minimum Search - Taking Simple RFO Step
 Searching for Lamda that Minimizes Along All modes
 Value Taken    Lamda =  -0.00013029
 Step Taken.  Stepsize is  0.094389

                             Maximum     Tolerance    Cnvgd?
         Gradient           0.001107      0.000300      NO
         Displacement       0.038539      0.001200      NO
         Energy change     -0.000048      0.000001      NO


 New Cartesian Coordinates Obtained by Inverse Iteration

 Displacement from previous Coordinates is:  0.135068
 ----------------------------------------------------------------
             Standard Nuclear Orientation (Angstroms)
    I     Atom           X                Y                Z
 ----------------------------------------------------------------
    1      C       3.3163606585    -1.1489710313    -0.0789509123
    2      C       2.2756465518    -0.0869494617     0.2437565611
    3      N       1.0265337673    -0.3187657722    -0.2537486748
    4      C      -0.0917615148     0.5468743162     0.0660888776
    5      C      -1.3716571371    -0.2976866230    -0.0725308643
    6      N      -2.4911112851     0.2669304651     0.4552979107
    7      C      -3.8032869038    -0.3509595975     0.3717233395
    8      O       2.5476056523     0.9197112697     0.8929210585
    9      C      -0.1357815169     1.7893777703    -0.8438415778
   10      O      -1.3687712675    -1.3856744199    -0.6443736965
   11      H       4.1551081543    -0.6760241288    -0.5989180314
   12      H       2.9296996694    -1.9661453595    -0.6954594403
   13      H       3.7037444305    -1.5602046805     0.8586638939
   14      H       0.7719549337    -1.2037027656    -0.6779815252
   15      H       0.0201592885     0.8830900868     1.1049150533
   16      H      -2.4033686840     1.1563816210     0.9260120413
   17      H      -4.5076492289     0.2878174788    -0.1740213220
   18      H      -4.2085727113    -0.5543844439     1.3696580989
   19      H      -3.6862142547    -1.2935018977    -0.1643578722
   20      H      -0.9663192311     2.4550627495    -0.5798851125
   21      H      -0.2494555920     1.4927713846    -1.8917048552
   22      H       0.8003032211     2.3421870397    -0.7294089504
 ----------------------------------------------------------------
 Nuclear Repulsion Energy =   548.6036920961 hartrees
 There are       39 alpha and       39 beta electrons
 Applying Cartesian multipole field
    Component          Value
    ---------          -----
     (2,0,0)        1.00000E-11
     (0,2,0)        2.00000E-11
     (0,0,2)       -3.00000E-11
 Nucleus-field energy     =     0.0000000175 hartrees
 length of FILE_MO_COEFS: 60900 
 Requested basis set is 6-31G(d)
 There are 64 shells and 174 basis functions
 in ParallelAOLoop for JobNumber:  2 JobType:  2 
 A cutoff of  1.0D-10 yielded   1635 shell pairs
 There are     12852 function pairs
 in ParallelAOLoop for JobNumber: 11 JobType: 11 
 DoParallel is ON (aoloop_n) 
 Smallest overlap matrix eigenvalue = 2.49E-03
 Guess MOs from SCF MO coefficient file
 Reading MOs from coefficient file
 Reading MOs from coefficient file
 A restricted hybrid HF-DFT SCF calculation will be
 performed using Relaxed Constraint Minimization + Pulay DIIS
 Exchange:     0.2000 Hartree-Fock + 0.0800 Slater + 0.7200 B88
 Correlation:  0.1900 VWN1RPA + 0.8100 LYP
 Using SG-1 standard quadrature grid
 SCF converges when DIIS error is below 1.0E-06
 Geometry optimization detected.  Setting ReadMinima to 0
 Setting SaveMinima to 0
 in ParallelAOLoop for JobNumber: 22 JobType: 22 
 ---------------------------------------
  Cycle       Energy         DIIS Error
 ---------------------------------------
    1    -495.8519232421      5.52E-04 Done RCA. Switching to DIIS
 in ParallelAOLoop for JobNumber: 22 JobType: 22 
    2    -495.8528086615      5.43E-05
 in ParallelAOLoop for JobNumber: 22 JobType: 22 
    3    -495.8527952300      9.68E-05
 in ParallelAOLoop for JobNumber: 22 JobType: 22 
    4    -495.8528223486      1.48E-05
 in ParallelAOLoop for JobNumber: 22 JobType: 22 
    5    -495.8528229398      5.44E-06
 in ParallelAOLoop for JobNumber: 22 JobType: 22 
    6    -495.8528230360      2.00E-06
 in ParallelAOLoop for JobNumber: 22 JobType: 22 
    7    -495.8528230453      9.01E-07 Convergence criterion met
 ---------------------------------------
 SCF time:  CPU 47.00 s  wall 47.00 s
 SCF   energy in the final basis set = -495.8528230453
 Total energy in the final basis set = -495.8528230453
 No wavefunction analysis requested
 Calculating analytic gradient of the SCF energy
 in ParallelAOLoop for JobNumber: 111 JobType: 11 
 DoParallel is ON (aoloop_n) 
 in ParallelAOLoop for JobNumber: 122 JobType: 22 
 Gradient of SCF Energy
            1           2           3           4           5           6
    1   0.0002809   0.0003594  -0.0001419   0.0004686   0.0002394  -0.0006294
    2  -0.0001132  -0.0008269   0.0001323   0.0005970  -0.0004674   0.0000149
    3  -0.0003991   0.0012742  -0.0012635   0.0001215   0.0004873  -0.0000685
            7           8           9          10          11          12
    1   0.0003682   0.0001185  -0.0002251  -0.0006241   0.0000666  -0.0001111
    2   0.0003284   0.0006277  -0.0002841  -0.0001388  -0.0000240   0.0001795
    3   0.0000027  -0.0000685   0.0001541  -0.0002504  -0.0000234  -0.0000098
           13          14          15          16          17          18
    1  -0.0000977   0.0000935  -0.0000668   0.0001395  -0.0000763  -0.0000642
    2   0.0000515  -0.0001669   0.0000869   0.0000554  -0.0000328  -0.0000680
    3   0.0000541   0.0002107  -0.0001533  -0.0000393  -0.0000645   0.0000230
           19          20          21          22
    1  -0.0000642  -0.0001690   0.0000317   0.0001036
    2  -0.0001033   0.0001064  -0.0000173   0.0000628
    3  -0.0000094  -0.0000197   0.0000427  -0.0000008
 Max gradient component =       1.274E-03
 RMS gradient           =       3.350E-04
 Gradient time:  CPU 20.99 s  wall 21.02 s
 Geometry Optimization Parameters
   NAtoms,    NIC,     NZ,  NCons,   NDum,   NFix, NCnnct, MaxDiis
       22     142       0       0       0       0       0       0

 Cartesian Hessian Update
 Hessian Updated using BFGS Update


** GEOMETRY OPTIMIZATION IN DELOCALIZED INTERNAL COORDINATES **
   Searching for a Minimum

   Optimization Cycle:   6

                       Coordinates (Angstroms)
     ATOM                X               Y               Z
      1  C         3.3163606585   -1.1489710313   -0.0789509123
      2  C         2.2756465518   -0.0869494617    0.2437565611
      3  N         1.0265337673   -0.3187657722   -0.2537486748
      4  C        -0.0917615148    0.5468743162    0.0660888776
      5  C        -1.3716571371   -0.2976866230   -0.0725308643
      6  N        -2.4911112851    0.2669304651    0.4552979107
      7  C        -3.8032869038   -0.3509595975    0.3717233395
      8  O         2.5476056523    0.9197112697    0.8929210585
      9  C        -0.1357815169    1.7893777703   -0.8438415778
     10  O        -1.3687712675   -1.3856744199   -0.6443736965
     11  H         4.1551081543   -0.6760241288   -0.5989180314
     12  H         2.9296996694   -1.9661453595   -0.6954594403
     13  H         3.7037444305   -1.5602046805    0.8586638939
     14  H         0.7719549337   -1.2037027656   -0.6779815252
     15  H         0.0201592885    0.8830900868    1.1049150533
     16  H        -2.4033686840    1.1563816210    0.9260120413
     17  H        -4.5076492289    0.2878174788   -0.1740213220
     18  H        -4.2085727113   -0.5543844439    1.3696580989
     19  H        -3.6862142547   -1.2935018977   -0.1643578722
     20  H        -0.9663192311    2.4550627495   -0.5798851125
     21  H        -0.2494555920    1.4927713846   -1.8917048552
     22  H         0.8003032211    2.3421870397   -0.7294089504
   Point Group: c1    Number of degrees of freedom:    60


   Energy is   -495.852823045

 Hessian Updated using BFGS Update

 57 Hessian modes will be used to form the next step
  Hessian Eigenvalues:
     0.001639    0.003555    0.006257    0.006487    0.006909    0.011311
     0.012033    0.012364    0.019793    0.020216    0.039553    0.047963
     0.049215    0.054756    0.057989    0.067668    0.070141    0.071855
     0.075798    0.075917    0.157183    0.158989    0.159449    0.159999
     0.160073    0.160544    0.162493    0.164440    0.173407    0.186010
     0.218549    0.223831    0.241788    0.249968    0.257205    0.263393
     0.282920    0.285057    0.307464    0.335361    0.340639    0.341662
     0.342134    0.342636    0.343108    0.343273    0.343471    0.344877
     0.347451    0.362840    0.382656    0.454095    0.455329    0.517892
     0.537732    0.788370    0.812276

 Minimum Search - Taking Simple RFO Step
 Searching for Lamda that Minimizes Along All modes
 Value Taken    Lamda =  -0.00004236
 Step Taken.  Stepsize is  0.058083

                             Maximum     Tolerance    Cnvgd?
         Gradient           0.000856      0.000300      NO
         Displacement       0.021006      0.001200      NO
         Energy change     -0.000047      0.000001      NO


 New Cartesian Coordinates Obtained by Inverse Iteration

 Displacement from previous Coordinates is:  0.118229
 ----------------------------------------------------------------
             Standard Nuclear Orientation (Angstroms)
    I     Atom           X                Y                Z
 ----------------------------------------------------------------
    1      C       3.3129504143    -1.1489758671    -0.0825485339
    2      C       2.2751178110    -0.0834884493     0.2359759787
    3      N       1.0216882999    -0.3218685518    -0.2444582478
    4      C      -0.0941899791     0.5477635543     0.0710027743
    5      C      -1.3733604659    -0.2941636947    -0.0749179543
    6      N      -2.4953353225     0.2681804230     0.4487655465
    7      C      -3.8052126752    -0.3562951322     0.3679385573
    8      O       2.5539280379     0.9299695172     0.8713966376
    9      C      -0.1271714318     1.7927837379    -0.8364257046
   10      O      -1.3632080987    -1.3856131648    -0.6403561220
   11      H       4.1453341413    -0.6829429774    -0.6186315843
   12      H       2.9217420347    -1.9767019734    -0.6821358552
   13      H       3.7116986353    -1.5454194947     0.8566305683
   14      H       0.7639819093    -1.2082377301    -0.6637307841
   15      H       0.0136418603     0.8799687355     1.1118443857
   16      H      -2.4125128085     1.1596327012     0.9164290659
   17      H      -4.5123405682     0.2780789133    -0.1791133846
   18      H      -4.2084461717    -0.5574344549     1.3670369471
   19      H      -3.6838195197    -1.2998076171    -0.1650517375
   20      H      -0.9521809001     2.4644658266    -0.5713627398
   21      H      -0.2420793408     1.4997919607    -1.8852331707
   22      H       0.8129411382     2.3375477377    -0.7192006426
 ----------------------------------------------------------------
 Nuclear Repulsion Energy =   548.7713132170 hartrees
 There are       39 alpha and       39 beta electrons
 Applying Cartesian multipole field
    Component          Value
    ---------          -----
     (2,0,0)        1.00000E-11
     (0,2,0)        2.00000E-11
     (0,0,2)       -3.00000E-11
 Nucleus-field energy     =     0.0000000175 hartrees
 length of FILE_MO_COEFS: 60900 
 Requested basis set is 6-31G(d)
 There are 64 shells and 174 basis functions
 in ParallelAOLoop for JobNumber:  2 JobType:  2 
 A cutoff of  1.0D-10 yielded   1638 shell pairs
 There are     12858 function pairs
 in ParallelAOLoop for JobNumber: 11 JobType: 11 
 DoParallel is ON (aoloop_n) 
 Smallest overlap matrix eigenvalue = 2.46E-03
 Guess MOs from SCF MO coefficient file
 Reading MOs from coefficient file
 Reading MOs from coefficient file
 A restricted hybrid HF-DFT SCF calculation will be
 performed using Relaxed Constraint Minimization + Pulay DIIS
 Exchange:     0.2000 Hartree-Fock + 0.0800 Slater + 0.7200 B88
 Correlation:  0.1900 VWN1RPA + 0.8100 LYP
 Using SG-1 standard quadrature grid
 SCF converges when DIIS error is below 1.0E-06
 Geometry optimization detected.  Setting ReadMinima to 0
 Setting SaveMinima to 0
 in ParallelAOLoop for JobNumber: 22 JobType: 22 
 ---------------------------------------
  Cycle       Energy         DIIS Error
 ---------------------------------------
    1    -495.8538431025      4.86E-04 Done RCA. Switching to DIIS
 in ParallelAOLoop for JobNumber: 22 JobType: 22 
    2    -495.8528390925      3.06E-05
 in ParallelAOLoop for JobNumber: 22 JobType: 22 
    3    -495.8528406693      3.82E-05
 in ParallelAOLoop for JobNumber: 22 JobType: 22 
    4    -495.8528444838      1.41E-05
 in ParallelAOLoop for JobNumber: 22 JobType: 22 
    5    -495.8528450076      4.65E-06
 in ParallelAOLoop for JobNumber: 22 JobType: 22 
    6    -495.8528450715      1.65E-06
 in ParallelAOLoop for JobNumber: 22 JobType: 22 
    7    -495.8528450787      3.10E-07 Convergence criterion met
 ---------------------------------------
 SCF time:  CPU 52.00 s  wall 52.50 s
 SCF   energy in the final basis set = -495.8528450787
 Total energy in the final basis set = -495.8528450787
 No wavefunction analysis requested
 Calculating analytic gradient of the SCF energy
 in ParallelAOLoop for JobNumber: 111 JobType: 11 
 DoParallel is ON (aoloop_n) 
 in ParallelAOLoop for JobNumber: 122 JobType: 22 
 Gradient of SCF Energy
            1           2           3           4           5           6
    1   0.0000647   0.0001658  -0.0002043  -0.0001940  -0.0000916  -0.0001021
    2   0.0001986  -0.0005593   0.0002938  -0.0000421   0.0003314   0.0000698
    3  -0.0001875   0.0008867  -0.0007338   0.0000925  -0.0003003   0.0002066
            7           8           9          10          11          12
    1  -0.0000026   0.0001276  -0.0000469   0.0002431   0.0000149  -0.0000441
    2  -0.0000164   0.0001867  -0.0000906  -0.0002002  -0.0000369   0.0000460
    3   0.0000319  -0.0002551   0.0000307   0.0000765   0.0000292  -0.0000138
           13          14          15          16          17          18
    1  -0.0000637   0.0000106   0.0000870  -0.0000055  -0.0000151  -0.0000269
    2   0.0000166  -0.0001168  -0.0001478  -0.0000184   0.0000025   0.0000160
    3   0.0000035   0.0002154  -0.0000299  -0.0000148  -0.0000046  -0.0000105
           19          20          21          22
    1  -0.0000094   0.0000429   0.0000335   0.0000161
    2   0.0000244   0.0000325   0.0000101   0.0000002
    3   0.0000271  -0.0000224  -0.0000047  -0.0000226
 Max gradient component =       8.867E-04
 RMS gradient           =       1.958E-04
 Gradient time:  CPU 27.59 s  wall 27.86 s
 Geometry Optimization Parameters
   NAtoms,    NIC,     NZ,  NCons,   NDum,   NFix, NCnnct, MaxDiis
       22     142       0       0       0       0       0       0

 Cartesian Hessian Update
 Hessian Updated using BFGS Update


** GEOMETRY OPTIMIZATION IN DELOCALIZED INTERNAL COORDINATES **
   Searching for a Minimum

   Optimization Cycle:   7

                       Coordinates (Angstroms)
     ATOM                X               Y               Z
      1  C         3.3129504143   -1.1489758671   -0.0825485339
      2  C         2.2751178110   -0.0834884493    0.2359759787
      3  N         1.0216882999   -0.3218685518   -0.2444582478
      4  C        -0.0941899791    0.5477635543    0.0710027743
      5  C        -1.3733604659   -0.2941636947   -0.0749179543
      6  N        -2.4953353225    0.2681804230    0.4487655465
      7  C        -3.8052126752   -0.3562951322    0.3679385573
      8  O         2.5539280379    0.9299695172    0.8713966376
      9  C        -0.1271714318    1.7927837379   -0.8364257046
     10  O        -1.3632080987   -1.3856131648   -0.6403561220
     11  H         4.1453341413   -0.6829429774   -0.6186315843
     12  H         2.9217420347   -1.9767019734   -0.6821358552
     13  H         3.7116986353   -1.5454194947    0.8566305683
     14  H         0.7639819093   -1.2082377301   -0.6637307841
     15  H         0.0136418603    0.8799687355    1.1118443857
     16  H        -2.4125128085    1.1596327012    0.9164290659
     17  H        -4.5123405682    0.2780789133   -0.1791133846
     18  H        -4.2084461717   -0.5574344549    1.3670369471
     19  H        -3.6838195197   -1.2998076171   -0.1650517375
     20  H        -0.9521809001    2.4644658266   -0.5713627398
     21  H        -0.2420793408    1.4997919607   -1.8852331707
     22  H         0.8129411382    2.3375477377   -0.7192006426
   Point Group: c1    Number of degrees of freedom:    60


   Energy is   -495.852845079

 Hessian Updated using BFGS Update

 58 Hessian modes will be used to form the next step
  Hessian Eigenvalues:
     0.001759    0.003503    0.005209    0.006460    0.006779    0.009890
     0.012263    0.014879    0.019869    0.020487    0.036946    0.047320
     0.049755    0.054952    0.057946    0.069619    0.070100    0.071840
     0.075701    0.075917    0.155587    0.158970    0.159483    0.159781
     0.159999    0.160093    0.160506    0.162212    0.163467    0.174003
     0.185855    0.218957    0.224769    0.246366    0.249950    0.263390
     0.271950    0.283153    0.295495    0.306493    0.334959    0.340818
     0.341666    0.342137    0.342628    0.343147    0.343266    0.343448
     0.344822    0.347587    0.362582    0.384307    0.454075    0.455392
     0.509454    0.536912    0.783461    0.812756

 Minimum Search - Taking Simple RFO Step
 Searching for Lamda that Minimizes Along All modes
 Value Taken    Lamda =  -0.00002378
 Step Taken.  Stepsize is  0.053698

                             Maximum     Tolerance    Cnvgd?
         Gradient           0.000331      0.000300      NO
         Displacement       0.034165      0.001200      NO
         Energy change     -0.000022      0.000001      NO


 New Cartesian Coordinates Obtained by Inverse Iteration

 Displacement from previous Coordinates is:  0.068386
 ----------------------------------------------------------------
             Standard Nuclear Orientation (Angstroms)
    I     Atom           X                Y                Z
 ----------------------------------------------------------------
    1      C       3.3131969703    -1.1476499388    -0.0832112486
    2      C       2.2762328030    -0.0797027325     0.2298073481
    3      N       1.0201176068    -0.3247438376    -0.2376557025
    4      C      -0.0948571691     0.5465241380     0.0750681613
    5      C      -1.3733292983    -0.2950121216    -0.0712645219
    6      N      -2.4952882738     0.2666511473     0.4521274461
    7      C      -3.8062488508    -0.3552611356     0.3649188568
    8      O       2.5553683724     0.9342945365     0.8641450783
    9      C      -0.1258970479     1.7899725284    -0.8351146346
   10      O      -1.3647665398    -1.3803410275    -0.6483977810
   11      H       4.1414221998    -0.6865090026    -0.6298658486
   12      H       2.9203856311    -1.9834241124    -0.6706434714
   13      H       3.7190200002    -1.5326561880     0.8577083023
   14      H       0.7625284231    -1.2092419732    -0.6607925507
   15      H       0.0120972589     0.8809394347     1.1154310243
   16      H      -2.4122648492     1.1550791606     0.9255256083
   17      H      -4.5114512837     0.2846375161    -0.1780200095
   18      H      -4.2106159605    -0.5628064806     1.3621873863
   19      H      -3.6854728383    -1.2948911821    -0.1749161841
   20      H      -0.9504537344     2.4624614940    -0.5712021656
   21      H      -0.2411468124     1.4948942937    -1.8833433582
   22      H       0.8145903926     2.3340194830    -0.7186377348
 ----------------------------------------------------------------
 Nuclear Repulsion Energy =   548.8730747696 hartrees
 There are       39 alpha and       39 beta electrons
 Applying Cartesian multipole field
    Component          Value
    ---------          -----
     (2,0,0)        1.00000E-11
     (0,2,0)        2.00000E-11
     (0,0,2)       -3.00000E-11
 Nucleus-field energy     =     0.0000000175 hartrees
 length of FILE_MO_COEFS: 60900 
 Requested basis set is 6-31G(d)
 There are 64 shells and 174 basis functions
 in ParallelAOLoop for JobNumber:  2 JobType:  2 
 A cutoff of  1.0D-10 yielded   1639 shell pairs
 There are     12864 function pairs
 in ParallelAOLoop for JobNumber: 11 JobType: 11 
 DoParallel is ON (aoloop_n) 
 Smallest overlap matrix eigenvalue = 2.45E-03
 Guess MOs from SCF MO coefficient file
 Reading MOs from coefficient file
 Reading MOs from coefficient file
 A restricted hybrid HF-DFT SCF calculation will be
 performed using Relaxed Constraint Minimization + Pulay DIIS
 Exchange:     0.2000 Hartree-Fock + 0.0800 Slater + 0.7200 B88
 Correlation:  0.1900 VWN1RPA + 0.8100 LYP
 Using SG-1 standard quadrature grid
 SCF converges when DIIS error is below 1.0E-06
 Geometry optimization detected.  Setting ReadMinima to 0
 Setting SaveMinima to 0
 in ParallelAOLoop for JobNumber: 22 JobType: 22 
 ---------------------------------------
  Cycle       Energy         DIIS Error
 ---------------------------------------
    1    -495.8535115643      3.25E-04 Done RCA. Switching to DIIS
 in ParallelAOLoop for JobNumber: 22 JobType: 22 
    2    -495.8528448603      2.25E-05
 in ParallelAOLoop for JobNumber: 22 JobType: 22 
    3    -495.8528448198      3.21E-05
 in ParallelAOLoop for JobNumber: 22 JobType: 22 
    4    -495.8528476796      9.29E-06
 in ParallelAOLoop for JobNumber: 22 JobType: 22 
    5    -495.8528479236      2.29E-06
 in ParallelAOLoop for JobNumber: 22 JobType: 22 
    6    -495.8528479374      1.10E-06
 in ParallelAOLoop for JobNumber: 22 JobType: 22 
    7    -495.8528479425      2.34E-07 Convergence criterion met
 ---------------------------------------
 SCF time:  CPU 54.71 s  wall 54.87 s
 SCF   energy in the final basis set = -495.8528479425
 Total energy in the final basis set = -495.8528479425
 No wavefunction analysis requested
 Calculating analytic gradient of the SCF energy
 in ParallelAOLoop for JobNumber: 111 JobType: 11 
 DoParallel is ON (aoloop_n) 
 in ParallelAOLoop for JobNumber: 122 JobType: 22 
 Gradient of SCF Energy
            1           2           3           4           5           6
    1  -0.0001767   0.0003086  -0.0000769  -0.0005474   0.0002167   0.0002307
    2   0.0000421   0.0005624   0.0001744  -0.0001158  -0.0003374   0.0001719
    3   0.0003520  -0.0009319  -0.0001217  -0.0003387   0.0012383  -0.0002106
            7           8           9          10          11          12
    1  -0.0001971  -0.0001518   0.0001954   0.0001793  -0.0000984   0.0000202
    2  -0.0001258  -0.0003865   0.0000648   0.0002236   0.0000355  -0.0000819
    3  -0.0000807   0.0002655   0.0000083  -0.0004598   0.0000753   0.0000217
           13          14          15          16          17          18
    1   0.0000650  -0.0000798   0.0000157  -0.0000624  -0.0000012   0.0000449
    2  -0.0001119  -0.0001277  -0.0001367   0.0000300   0.0000067   0.0000686
    3  -0.0000282   0.0002746   0.0000481  -0.0000776   0.0000322  -0.0000101
           19          20          21          22
    1   0.0000294   0.0000879   0.0000291  -0.0000311
    2   0.0000478  -0.0000406   0.0000212   0.0000157
    3   0.0000519  -0.0000101  -0.0000390  -0.0000593
 Max gradient component =       1.238E-03
 RMS gradient           =       2.634E-04
 Gradient time:  CPU 31.05 s  wall 31.17 s
 Geometry Optimization Parameters
   NAtoms,    NIC,     NZ,  NCons,   NDum,   NFix, NCnnct, MaxDiis
       22     142       0       0       0       0       0       0

 Cartesian Hessian Update
 Hessian Updated using BFGS Update


** GEOMETRY OPTIMIZATION IN DELOCALIZED INTERNAL COORDINATES **
   Searching for a Minimum

   Optimization Cycle:   8

                       Coordinates (Angstroms)
     ATOM                X               Y               Z
      1  C         3.3131969703   -1.1476499388   -0.0832112486
      2  C         2.2762328030   -0.0797027325    0.2298073481
      3  N         1.0201176068   -0.3247438376   -0.2376557025
      4  C        -0.0948571691    0.5465241380    0.0750681613
      5  C        -1.3733292983   -0.2950121216   -0.0712645219
      6  N        -2.4952882738    0.2666511473    0.4521274461
      7  C        -3.8062488508   -0.3552611356    0.3649188568
      8  O         2.5553683724    0.9342945365    0.8641450783
      9  C        -0.1258970479    1.7899725284   -0.8351146346
     10  O        -1.3647665398   -1.3803410275   -0.6483977810
     11  H         4.1414221998   -0.6865090026   -0.6298658486
     12  H         2.9203856311   -1.9834241124   -0.6706434714
     13  H         3.7190200002   -1.5326561880    0.8577083023
     14  H         0.7625284231   -1.2092419732   -0.6607925507
     15  H         0.0120972589    0.8809394347    1.1154310243
     16  H        -2.4122648492    1.1550791606    0.9255256083
     17  H        -4.5114512837    0.2846375161   -0.1780200095
     18  H        -4.2106159605   -0.5628064806    1.3621873863
     19  H        -3.6854728383   -1.2948911821   -0.1749161841
     20  H        -0.9504537344    2.4624614940   -0.5712021656
     21  H        -0.2411468124    1.4948942937   -1.8833433582
     22  H         0.8145903926    2.3340194830   -0.7186377348
   Point Group: c1    Number of degrees of freedom:    60


   Energy is   -495.852847942

 Hessian Updated using BFGS Update

 59 Hessian modes will be used to form the next step
  Hessian Eigenvalues:
     0.001566    0.003460    0.004637    0.006452    0.006650    0.008398
     0.012267    0.019602    0.020342    0.035629    0.042043    0.046977
     0.049697    0.054942    0.057944    0.068749    0.070235    0.071884
     0.075713    0.076019    0.156113    0.158956    0.159475    0.159755
     0.159999    0.160037    0.160282    0.160743    0.162507    0.166075
     0.176495    0.186219    0.219035    0.224796    0.246199    0.250046
     0.263495    0.268215    0.283352    0.295935    0.306780    0.334935
     0.340954    0.341653    0.342150    0.342645    0.343182    0.343420
     0.343564    0.344913    0.347572    0.363047    0.387237    0.454059
     0.455277    0.507944    0.536126    0.784400    0.813595

 Minimum Search - Taking Simple RFO Step
 Searching for Lamda that Minimizes Along All modes
 Value Taken    Lamda =  -0.00002370
 Step Taken.  Stepsize is  0.054844

                             Maximum     Tolerance    Cnvgd?
         Gradient           0.000569      0.000300      NO
         Displacement       0.022284      0.001200      NO
         Energy change     -0.000003      0.000001      NO


 New Cartesian Coordinates Obtained by Inverse Iteration

 Displacement from previous Coordinates is:  0.094443
 ----------------------------------------------------------------
             Standard Nuclear Orientation (Angstroms)
    I     Atom           X                Y                Z
 ----------------------------------------------------------------
    1      C       3.3133027281    -1.1466510535    -0.0793323670
    2      C       2.2736934389    -0.0822673918     0.2377255118
    3      N       1.0192773830    -0.3263112637    -0.2341592620
    4      C      -0.0957979465     0.5472674212     0.0718984496
    5      C      -1.3756389830    -0.2915316033    -0.0787091996
    6      N      -2.4943090882     0.2649918763     0.4568414006
    7      C      -3.8060480079    -0.3549784007     0.3694750367
    8      O       2.5504620086     0.9309107672     0.8745692575
    9      C      -0.1235007977     1.7876435579    -0.8427746535
   10      O      -1.3705564575    -1.3733050031    -0.6624735109
   11      H       4.1389242881    -0.6825665364    -0.6276029773
   12      H       2.9216969899    -1.9830050268    -0.6667383135
   13      H       3.7224842373    -1.5312492430     0.8602786526
   14      H       0.7645737643    -1.2051978171    -0.6703535628
   15      H       0.0081242919     0.8859414174     1.1110858533
   16      H      -2.4076068700     1.1471218426     0.9413465900
   17      H      -4.5141991009     0.2928956989    -0.1599903008
   18      H      -4.2041931620    -0.5764311929     1.3662860706
   19      H      -3.6892666536    -1.2870259524    -0.1843463382
   20      H      -0.9506360285     2.4594851943    -0.5851831449
   21      H      -0.2334733186     1.4883185985    -1.8903576221
   22      H       0.8158542843     2.3331781104    -0.7236315700
 ----------------------------------------------------------------
 Nuclear Repulsion Energy =   548.8277299898 hartrees
 There are       39 alpha and       39 beta electrons
 Applying Cartesian multipole field
    Component          Value
    ---------          -----
     (2,0,0)        1.00000E-11
     (0,2,0)        2.00000E-11
     (0,0,2)       -3.00000E-11
 Nucleus-field energy     =     0.0000000175 hartrees
 length of FILE_MO_COEFS: 60900 
 Requested basis set is 6-31G(d)
 There are 64 shells and 174 basis functions
 in ParallelAOLoop for JobNumber:  2 JobType:  2 
 A cutoff of  1.0D-10 yielded   1638 shell pairs
 There are     12858 function pairs
 in ParallelAOLoop for JobNumber: 11 JobType: 11 
 DoParallel is ON (aoloop_n) 
 Smallest overlap matrix eigenvalue = 2.45E-03
 Guess MOs from SCF MO coefficient file
 Reading MOs from coefficient file
 Reading MOs from coefficient file
 A restricted hybrid HF-DFT SCF calculation will be
 performed using Relaxed Constraint Minimization + Pulay DIIS
 Exchange:     0.2000 Hartree-Fock + 0.0800 Slater + 0.7200 B88
 Correlation:  0.1900 VWN1RPA + 0.8100 LYP
 Using SG-1 standard quadrature grid
 SCF converges when DIIS error is below 1.0E-06
 Geometry optimization detected.  Setting ReadMinima to 0
 Setting SaveMinima to 0
 in ParallelAOLoop for JobNumber: 22 JobType: 22 
 ---------------------------------------
  Cycle       Energy         DIIS Error
 ---------------------------------------
    1    -495.8523403771      3.04E-04 Done RCA. Switching to DIIS
 in ParallelAOLoop for JobNumber: 22 JobType: 22 
    2    -495.8528591153      2.04E-05
 in ParallelAOLoop for JobNumber: 22 JobType: 22 
    3    -495.8528611879      1.64E-05
 in ParallelAOLoop for JobNumber: 22 JobType: 22 
    4    -495.8528615973      1.20E-05
 in ParallelAOLoop for JobNumber: 22 JobType: 22 
    5    -495.8528620104      2.85E-06
 in ParallelAOLoop for JobNumber: 22 JobType: 22 
    6    -495.8528620323      1.06E-06
 in ParallelAOLoop for JobNumber: 22 JobType: 22 
    7    -495.8528620373      2.30E-07 Convergence criterion met
 ---------------------------------------
 SCF time:  CPU 45.08 s  wall 51.14 s
 SCF   energy in the final basis set = -495.8528620373
 Total energy in the final basis set = -495.8528620373
 No wavefunction analysis requested
 Calculating analytic gradient of the SCF energy
 in ParallelAOLoop for JobNumber: 111 JobType: 11 
 DoParallel is ON (aoloop_n) 
 in ParallelAOLoop for JobNumber: 122 JobType: 22 
 Gradient of SCF Energy
            1           2           3           4           5           6
    1  -0.0001153   0.0000155   0.0001965  -0.0002923   0.0000029   0.0003056
    2   0.0000826   0.0001530   0.0001375  -0.0002126   0.0003459  -0.0001342
[...]
     0.251292    0.263828    0.272876    0.284334    0.303879    0.323759
     0.335380    0.340722    0.341761    0.342177    0.342561    0.343176
     0.343351    0.343479    0.345177    0.347656    0.368855    0.387319
     0.453980    0.455345    0.508633    0.547999    0.790398    0.812366

 Minimum Search - Taking Simple RFO Step
 Searching for Lamda that Minimizes Along All modes
 Value Taken    Lamda =   0.00000000
 Step Taken.  Stepsize is  0.010663

                             Maximum     Tolerance    Cnvgd?
         Gradient           0.000033      0.000300     YES
         Displacement       0.004778      0.001200      NO
         Energy change     -0.000000      0.000001     YES

 Final energy is   -495.852867902974     


 ******************************
 **  OPTIMIZATION CONVERGED  **
 ******************************

                       Coordinates (Angstroms)
     ATOM                X               Y               Z
      1  C         3.3150285380   -1.1442847738   -0.0783386282
      2  C         2.2736819145   -0.0829018368    0.2440042694
      3  N         1.0177512944   -0.3311913090   -0.2214700704
      4  C        -0.0969254851    0.5462071996    0.0739288913
      5  C        -1.3780653184   -0.2903676783   -0.0815908037
      6  N        -2.4953955382    0.2633999165    0.4606355626
      7  C        -3.8084230729   -0.3526981289    0.3691271159
      8  O         2.5511379188    0.9320719523    0.8778159723
      9  C        -0.1201290737    1.7827118367   -0.8462635579
     10  O        -1.3749866629   -1.3656304057   -0.6768800152
     11  H         4.1290464485   -0.6810436419   -0.6446258760
     12  H         2.9191870799   -1.9889278161   -0.6507065279
     13  H         3.7411658975   -1.5158071679    0.8588463276
     14  H         0.7671143636   -1.2038751925   -0.6717992971
     15  H         0.0021125894    0.8884999285    1.1121437726
     16  H        -2.4055906275    1.1394955377    0.9554113682
     17  H        -4.5180286716    0.3054243932   -0.1455745225
     18  H        -4.2026795567   -0.5913541068    1.3636220000
     19  H        -3.6964662614   -1.2753217082   -0.2013484693
     20  H        -0.9480257802    2.4555403041   -0.5936787974
     21  H        -0.2274464523    1.4789366549   -1.8928437743
     22  H         0.8191034564    2.3283500423   -0.7265609399

Z-matrix Print:
$molecule
0 1
N 
H  1 1.013505
C  1 1.362232 2 122.463898
O  3 1.228361 1 122.355002 2 174.401922 0
C  1 1.448997 2 114.943893 3 170.990585 0
H  5 1.097663 1 108.194217 2 -132.271310 0
C  3 1.521460 1 115.561796 2 -5.863556 0
H  7 1.094403 3 113.681246 1 0.130730 0
H  7 1.094486 3 108.868895 1 -121.538234 0
H  7 1.094503 3 108.775959 1 121.856522 0
C  5 1.537974 1 106.907292 2 -13.948851 0
O  11 1.229052 5 121.518491 1 16.395882 0
N  11 1.359814 5 115.000453 1 -164.869026 0
H  13 1.010154 11 118.388818 5 2.915479 0
C  13 1.453269 11 122.999623 5 -177.570151 0
H  15 1.090510 13 107.388880 11 0.816421 0
H  15 1.096091 13 111.109872 11 -118.432878 0
H  15 1.096167 13 111.095325 11 120.162743 0
C  5 1.541505 1 112.061244 2 108.261718 0
H  19 1.092798 5 108.795239 1 58.569364 0
H  19 1.095046 5 110.455407 1 -61.172703 0
H  19 1.096317 5 111.476697 1 178.184252 0
$end

 No wavefunction analysis requested
 Total job time:  1007.70s(wall), 974.77s(cpu) 
 Thu Nov 17 17:39:20 2016

======= MOLDEN-FORMATTED INPUT FILE FOLLOWS =======
[Molden Format]
[Atoms] (Angs)
  C      1    6      3.31502854     -1.14428477     -0.07833863
  C      2    6      2.27368191     -0.08290184      0.24400427
  N      3    7      1.01775129     -0.33119131     -0.22147007
  C      4    6     -0.09692549      0.54620720      0.07392889
  C      5    6     -1.37806532     -0.29036768     -0.08159080
  N      6    7     -2.49539554      0.26339992      0.46063556
  C      7    6     -3.80842307     -0.35269813      0.36912712
  O      8    8      2.55113792      0.93207195      0.87781597
  C      9    6     -0.12012907      1.78271184     -0.84626356
  O     10    8     -1.37498666     -1.36563041     -0.67688002
  H     11    1      4.12904645     -0.68104364     -0.64462588
  H     12    1      2.91918708     -1.98892782     -0.65070653
  H     13    1      3.74116590     -1.51580717      0.85884633
  H     14    1      0.76711436     -1.20387519     -0.67179930
  H     15    1      0.00211259      0.88849993      1.11214377
  H     16    1     -2.40559063      1.13949554      0.95541137
  H     17    1     -4.51802867      0.30542439     -0.14557452
  H     18    1     -4.20267956     -0.59135411      1.36362200
  H     19    1     -3.69646626     -1.27532171     -0.20134847
  H     20    1     -0.94802578      2.45554030     -0.59367880
  H     21    1     -0.22744645      1.47893665     -1.89284377
  H     22    1      0.81910346      2.32835004     -0.72656094
[GEOCONV]
energy
     -495.8496971487
     -495.8521317102
     -495.8525521257
     -495.8527286170
     -495.8527765134
     -495.8528230453
     -495.8528450787
     -495.8528479425
     -495.8528620373
     -495.8528663008
     -495.8528676722
     -495.8528679030
max-force
        0.0287145308
        0.0034604987
        0.0019450943
        0.0016659922
        0.0011072871
        0.0008564143
        0.0003305714
        0.0005690982
        0.0002519912
        0.0001100249
        0.0000504091
        0.0000325877
max-step
        0.0901389904
        0.1123206302
        0.1236601726
        0.1220257113
        0.0385392849
        0.0210055152
        0.0341648636
        0.0222837868
        0.0145273806
        0.0130740851
        0.0036429657
        0.0047782473
[GEOMETRIES] (XYZ)
  22
Step 1
  C      3.33957400     -1.12295300     -0.24484300
  C      2.32085000     -0.05782800      0.11405700
  N      1.01259600     -0.38447900     -0.11100200
  C     -0.09484000      0.50191300      0.23726700
  C     -1.37798800     -0.33174600      0.08664200
  N     -2.55051900      0.32761300      0.29291600
  C     -3.85712200     -0.33925800      0.20989100
  O      2.66435700      1.05103500      0.59161800
  C     -0.10189400      1.78723800     -0.61685800
  O     -1.32714500     -1.55550000     -0.19494400
  H      4.06139400     -0.70359500     -0.95265800
  H      2.89184500     -2.01866300     -0.68252800
  H      3.89491700     -1.40598600      0.65528700
  H      0.73123200     -1.31711400     -0.38985700
  H      0.00587900      0.78811000      1.29560800
  H     -2.52683700      1.31800600      0.50474200
  H     -4.47521000      0.10349900     -0.57897800
  H     -4.39337800     -0.27132300      1.16239700
  H     -3.67705200     -1.38902800     -0.02464600
  H     -0.89406400      2.47964600     -0.30713800
  H     -0.24376100      1.54471100     -1.67442700
  H      0.86033300      2.29293600     -0.48869200
  22
Step 2
  C      3.32060630     -1.13016423     -0.20298012
  C      2.30025133     -0.06008683      0.13699326
  N      1.00834936     -0.36264922     -0.15256515
  C     -0.09543503      0.51479624      0.19072225
  C     -1.37457555     -0.32506531      0.04263313
  N     -2.53718572      0.31047111      0.32385549
  C     -3.83126799     -0.35023815      0.24869069
  O      2.62941785      1.01408889      0.64319410
  C     -0.10453805      1.79433549     -0.66513772
  O     -1.32795797     -1.50897616     -0.30117360
  H      4.07602021     -0.70013531     -0.86761077
  H      2.88600952     -2.01399807     -0.68033788
  H      3.83197066     -1.43567683      0.71538102
  H      0.72625573     -1.29079612     -0.44901742
  H      0.00454580      0.80214699      1.24795581
  H     -2.50756462      1.28322753      0.59131165
  H     -4.47340242      0.13759612     -0.49285602
  H     -4.33066774     -0.33555626      1.22361893
  H     -3.64820499     -1.38188826     -0.05111687
  H     -0.89278061      2.48901580     -0.35178344
  H     -0.25382263      1.55104675     -1.72223315
  H      0.85714355      2.29573983     -0.54369019
  22
Step 3
  C      3.32689212     -1.13430444     -0.15958961
  C      2.29739713     -0.06458665      0.17287218
  N      1.01896001     -0.34729095     -0.19677309
  C     -0.09455353      0.51812371      0.14010967
  C     -1.37490132     -0.32753932     -0.00565830
  N     -2.52416174      0.29585186      0.36064029
  C     -3.82778498     -0.34452030      0.29547513
  O      2.60962791      0.98135893      0.73402332
  C     -0.11816631      1.79177791     -0.72355596
  O     -1.33821988     -1.48386172     -0.41915127
  H      4.11844717     -0.68544253     -0.76737374
  H      2.91260465     -1.99546315     -0.69329368
  H      3.78907662     -1.48005454      0.77059120
  H      0.74695906     -1.26586920     -0.53069705
  H     -0.00012350      0.81798066      1.19451524
  H     -2.47197109      1.24900354      0.68891055
  H     -4.49703129      0.19383634     -0.38527828
  H     -4.29158214     -0.39035625      1.28730312
  H     -3.67463510     -1.35715296     -0.07742297
  H     -0.91647359      2.47807183     -0.41680975
  H     -0.26366619      1.54024941     -1.77942363
  H      0.83647299      2.30742182     -0.60555936
  22
Step 4
  C      3.31916810     -1.14354919     -0.11950854
  C      2.28542010     -0.07209646      0.20426894
  N      1.01870564     -0.33199399     -0.22690144
  C     -0.09363507      0.53447064      0.10405580
  C     -1.37181552     -0.31553698     -0.04127650
  N     -2.50954788      0.28047625      0.40697316
  C     -3.81591618     -0.35115456      0.33326640
  O      2.58197618      0.96049956      0.79663770
  C     -0.12171875      1.79456960     -0.78067911
  O     -1.34563927     -1.43834091     -0.53725962
  H      4.13492884     -0.68603326     -0.68769315
  H      2.91738272     -1.98675663     -0.68977704
  H      3.74532177     -1.51667906      0.81734913
  H      0.75141460     -1.24041793     -0.59059961
  H      0.00495510      0.84957748      1.15293913
  H     -2.44253438      1.20571268      0.80630106
  H     -4.50657778      0.23687830     -0.28248397
  H     -4.25044855     -0.47588341      1.33183191
  H     -3.67969786     -1.33260237     -0.12193370
  H     -0.93089473      2.47659867     -0.49393040
  H     -0.25424683      1.52522404     -1.83386837
  H      0.82656672      2.32427153     -0.66385777
  22
Step 5
  C      3.30993614     -1.15463796     -0.07975927
  C      2.27600253     -0.07913654      0.22793385
  N      1.02394922     -0.31254597     -0.26236432
  C     -0.09154696      0.55244043      0.06413538
  C     -1.36986586     -0.29639370     -0.07946246
  N     -2.49218390      0.26798419      0.44456314
  C     -3.79997712     -0.35974940      0.37353183
  O      2.54844522      0.92222173      0.88376245
  C     -0.13124078      1.80055210     -0.83793255
  O     -1.35807601     -1.39447588     -0.62981041
  H      4.15707222     -0.69132115     -0.59475742
  H      2.92231060     -1.97195993     -0.69538072
  H      3.68620213     -1.56427484      0.86324666
  H      0.76526112     -1.20365887     -0.67143354
  H      0.01550808      0.88162154      1.10651238
  H     -2.40940171      1.16452846      0.90272245
  H     -4.51109143      0.26577334     -0.17899468
  H     -4.20145105     -0.55242270      1.37525409
  H     -3.67917246     -1.30899256     -0.14997350
  H     -0.95580370      2.47113951     -0.56800155
  H     -0.24986546      1.51300496     -1.88784509
  H      0.80815619      2.34753722     -0.72209273
  22
Step 6
  C      3.31636066     -1.14897103     -0.07895091
  C      2.27564655     -0.08694946      0.24375656
  N      1.02653377     -0.31876577     -0.25374867
  C     -0.09176151      0.54687432      0.06608888
  C     -1.37165714     -0.29768662     -0.07253086
  N     -2.49111129      0.26693047      0.45529791
  C     -3.80328690     -0.35095960      0.37172334
  O      2.54760565      0.91971127      0.89292106
  C     -0.13578152      1.78937777     -0.84384158
  O     -1.36877127     -1.38567442     -0.64437370
  H      4.15510815     -0.67602413     -0.59891803
  H      2.92969967     -1.96614536     -0.69545944
  H      3.70374443     -1.56020468      0.85866389
  H      0.77195493     -1.20370277     -0.67798153
  H      0.02015929      0.88309009      1.10491505
  H     -2.40336868      1.15638162      0.92601204
  H     -4.50764923      0.28781748     -0.17402132
  H     -4.20857271     -0.55438444      1.36965810
  H     -3.68621425     -1.29350190     -0.16435787
  H     -0.96631923      2.45506275     -0.57988511
  H     -0.24945559      1.49277138     -1.89170486
  H      0.80030322      2.34218704     -0.72940895
  22
Step 7
  C      3.31295041     -1.14897587     -0.08254853
  C      2.27511781     -0.08348845      0.23597598
  N      1.02168830     -0.32186855     -0.24445825
  C     -0.09418998      0.54776355      0.07100277
  C     -1.37336047     -0.29416369     -0.07491795
  N     -2.49533532      0.26818042      0.44876555
  C     -3.80521268     -0.35629513      0.36793856
  O      2.55392804      0.92996952      0.87139664
  C     -0.12717143      1.79278374     -0.83642570
  O     -1.36320810     -1.38561316     -0.64035612
  H      4.14533414     -0.68294298     -0.61863158
  H      2.92174203     -1.97670197     -0.68213586
  H      3.71169864     -1.54541949      0.85663057
  H      0.76398191     -1.20823773     -0.66373078
  H      0.01364186      0.87996874      1.11184439
  H     -2.41251281      1.15963270      0.91642907
  H     -4.51234057      0.27807891     -0.17911338
  H     -4.20844617     -0.55743445      1.36703695
  H     -3.68381952     -1.29980762     -0.16505174
  H     -0.95218090      2.46446583     -0.57136274
  H     -0.24207934      1.49979196     -1.88523317
  H      0.81294114      2.33754774     -0.71920064
  22
Step 8
  C      3.31319697     -1.14764994     -0.08321125
  C      2.27623280     -0.07970273      0.22980735
  N      1.02011761     -0.32474384     -0.23765570
  C     -0.09485717      0.54652414      0.07506816
  C     -1.37332930     -0.29501212     -0.07126452
  N     -2.49528827      0.26665115      0.45212745
  C     -3.80624885     -0.35526114      0.36491886
  O      2.55536837      0.93429454      0.86414508
  C     -0.12589705      1.78997253     -0.83511463
  O     -1.36476654     -1.38034103     -0.64839778
  H      4.14142220     -0.68650900     -0.62986585
  H      2.92038563     -1.98342411     -0.67064347
  H      3.71902000     -1.53265619      0.85770830
  H      0.76252842     -1.20924197     -0.66079255
  H      0.01209726      0.88093943      1.11543102
  H     -2.41226485      1.15507916      0.92552561
  H     -4.51145128      0.28463752     -0.17802001
  H     -4.21061596     -0.56280648      1.36218739
  H     -3.68547284     -1.29489118     -0.17491618
  H     -0.95045373      2.46246149     -0.57120217
  H     -0.24114681      1.49489429     -1.88334336
  H      0.81459039      2.33401948     -0.71863773
  22
Step 9
  C      3.31330273     -1.14665105     -0.07933237
  C      2.27369344     -0.08226739      0.23772551
  N      1.01927738     -0.32631126     -0.23415926
  C     -0.09579795      0.54726742      0.07189845
  C     -1.37563898     -0.29153160     -0.07870920
  N     -2.49430909      0.26499188      0.45684140
  C     -3.80604801     -0.35497840      0.36947504
  O      2.55046201      0.93091077      0.87456926
  C     -0.12350080      1.78764356     -0.84277465
  O     -1.37055646     -1.37330500     -0.66247351
  H      4.13892429     -0.68256654     -0.62760298
  H      2.92169699     -1.98300503     -0.66673831
  H      3.72248424     -1.53124924      0.86027865
  H      0.76457376     -1.20519782     -0.67035356
  H      0.00812429      0.88594142      1.11108585
  H     -2.40760687      1.14712184      0.94134659
  H     -4.51419910      0.29289570     -0.15999030
  H     -4.20419316     -0.57643119      1.36628607
  H     -3.68926665     -1.28702595     -0.18434634
  H     -0.95063603      2.45948519     -0.58518314
  H     -0.23347332      1.48831860     -1.89035762
  H      0.81585428      2.33317811     -0.72363157
  22
Step 10
  C      3.31436990     -1.14527681     -0.07882375
  C      2.27358234     -0.08311246      0.24193864
  N      1.01862932     -0.32898962     -0.22737624
  C     -0.09638756      0.54665981      0.07274060
  C     -1.37698955     -0.29071884     -0.08044064
  N     -2.49484752      0.26419508      0.45904517
  C     -3.80735269     -0.35368915      0.36961624
  O      2.55087745      0.93106973      0.87717804
  C     -0.12193652      1.78495444     -0.84508702
  O     -1.37292432     -1.36926892     -0.67009465
  H      4.13458849     -0.68068572     -0.63485742
  H      2.92089955     -1.98482904     -0.66031390
  H      3.73138704     -1.52488636      0.85931708
  H      0.76602483     -1.20430568     -0.67166664
  H      0.00516063      0.88747461      1.11126603
  H     -2.40651236      1.14304321      0.94918572
  H     -4.51597534      0.29932312     -0.15287441
  H     -4.20372009     -0.58331092      1.36533101
  H     -3.69291352     -1.28123508     -0.19223123
  H     -0.94971442      2.45713893     -0.59033207
  H     -0.23035139      1.48302889     -1.89208008
  H      0.81727274      2.33065477     -0.72558649
  22
Step 11
  C      3.31497035     -1.14432229     -0.07823961
  C      2.27357861     -0.08286745      0.24360861
  N      1.01788685     -0.33095068     -0.22241188
  C     -0.09687437      0.54617431      0.07355502
  C     -1.37810255     -0.29025894     -0.08176921
  N     -2.49529581      0.26336220      0.46073090
  C     -3.80834050     -0.35289372      0.36947264
  O      2.55092867      0.93221134      0.87734691
  C     -0.12021134      1.78297262     -0.84633037
  O     -1.37526095     -1.36578412     -0.67666830
  H      4.13046975     -0.68063710     -0.64198641
  H      2.91987457     -1.98782362     -0.65282796
  H      3.73887430     -1.51773389      0.85923587
  H      0.76692152     -1.20393645     -0.67200031
  H      0.00263314      0.88836527      1.11175507
  H     -2.40554597      1.13953844      0.95537557
  H     -4.51768653      0.30444829     -0.14658317
  H     -4.20299062     -0.58996327      1.36416658
  H     -3.69601462     -1.27635391     -0.19956435
  H     -0.94809122      2.45573007     -0.59349963
  H     -0.22762478      1.47944424     -1.89296863
  H      0.81906850      2.32851266     -0.72654334
  22
Step 12
  C      3.31502854     -1.14428477     -0.07833863
  C      2.27368191     -0.08290184      0.24400427
  N      1.01775129     -0.33119131     -0.22147007
  C     -0.09692549      0.54620720      0.07392889
  C     -1.37806532     -0.29036768     -0.08159080
  N     -2.49539554      0.26339992      0.46063556
  C     -3.80842307     -0.35269813      0.36912712
  O      2.55113792      0.93207195      0.87781597
  C     -0.12012907      1.78271184     -0.84626356
  O     -1.37498666     -1.36563041     -0.67688002
  H      4.12904645     -0.68104364     -0.64462588
  H      2.91918708     -1.98892782     -0.65070653
  H      3.74116590     -1.51580717      0.85884633
  H      0.76711436     -1.20387519     -0.67179930
  H      0.00211259      0.88849993      1.11214377
  H     -2.40559063      1.13949554      0.95541137
  H     -4.51802867      0.30542439     -0.14557452
  H     -4.20267956     -0.59135411      1.36362200
  H     -3.69646626     -1.27532171     -0.20134847
  H     -0.94802578      2.45554030     -0.59367880
  H     -0.22744645      1.47893665     -1.89284377
  H      0.81910346      2.32835004     -0.72656094

======= END OF MOLDEN-FORMATTED INPUT FILE =======


        *************************************************************
        *                                                           *
        *  Thank you very much for using Q-Chem.  Have a nice day.  *
        *                                                           *
        *************************************************************


0 sent ACK to 0 
now end server 0 ... 
