Process 0 of 1 is on gollum407.lsa.umich.edu - thread support 0
initial socket setup ...start
initial socket setup ...done 
now start server 0 ... 
 Q-Chem 4.3.0 for Intel X86 EM64T Linux

 Parts of Q-Chem use Armadillo 5.200.1 (Boston Tea Smuggler).
 http://arma.sourceforge.net/

 Q-Chem begins on Thu Nov 17 14:23:20 2016  

Host: gollum407.lsa.umich.edu
0

     Scratch files written to /tmp/77279442.satyr/qchem31121//
 Parallel job on  1  processors

Checking the input file for inconsistencies...  ...done.

--------------------------------------------------------------
User input:
--------------------------------------------------------------
 $rem
 JOBTYPE OPT
 EXCHANGE B3LYP
! CORRELATION PBE
! UNRESTRICTED TRUE
 SCF_ALGORITHM rca_diis
 SCF_MAX_CYCLES 150
! BASIS LANL2DZ
! ECP LANL2DZ
 BASIS 6-31G*
 WAVEFUNCTION_ANALYSIS FALSE
 GEOM_OPT_MAX_CYCLES 300

scf_convergence 6

 SYM_IGNORE TRUE
 SYMMETRY   FALSE

molden_format true
 $end


$molecule
0 1
  C 2.643785 -1.121028 -1.073991
  C 1.440890 -0.257653 -0.731562
  N 1.113549 -0.198238 0.587618
  C -0.002980 0.568839 1.173333
  C -1.390825 -0.048391 0.863046
  N -1.768439 -0.012358 -0.441195
  C -3.015698 -0.602464 -0.893016
  O 0.822529 0.344445 -1.613501
  C 0.081155 2.065992 0.847556
  O -2.082502 -0.492329 1.775255
  H 2.323771 -1.914876 -1.754602
  H 3.131647 -1.568635 -0.204417
  H 3.369802 -0.505402 -1.611088
  H 1.593996 -0.829628 1.210337
  H 0.094656 0.439609 2.253020
  H -1.059273 0.248575 -1.122879
  H -2.849726 -1.546821 -1.426538
  H -3.545070 0.084690 -1.560948
  H -3.631817 -0.800937 -0.015503
  H -0.734906 2.593966 1.349942
  H 0.013387 2.248453 -0.224778
  H 1.029499 2.473951 1.210080
$end
--------------------------------------------------------------
 ----------------------------------------------------------------
             Standard Nuclear Orientation (Angstroms)
    I     Atom           X                Y                Z
 ----------------------------------------------------------------
    1      C       2.6437850000    -1.1210280000    -1.0739910000
    2      C       1.4408900000    -0.2576530000    -0.7315620000
    3      N       1.1135490000    -0.1982380000     0.5876180000
    4      C      -0.0029800000     0.5688390000     1.1733330000
    5      C      -1.3908250000    -0.0483910000     0.8630460000
    6      N      -1.7684390000    -0.0123580000    -0.4411950000
    7      C      -3.0156980000    -0.6024640000    -0.8930160000
    8      O       0.8225290000     0.3444450000    -1.6135010000
    9      C       0.0811550000     2.0659920000     0.8475560000
   10      O      -2.0825020000    -0.4923290000     1.7752550000
   11      H       2.3237710000    -1.9148760000    -1.7546020000
   12      H       3.1316470000    -1.5686350000    -0.2044170000
   13      H       3.3698020000    -0.5054020000    -1.6110880000
   14      H       1.5939960000    -0.8296280000     1.2103370000
   15      H       0.0946560000     0.4396090000     2.2530200000
   16      H      -1.0592730000     0.2485750000    -1.1228790000
   17      H      -2.8497260000    -1.5468210000    -1.4265380000
   18      H      -3.5450700000     0.0846900000    -1.5609480000
   19      H      -3.6318170000    -0.8009370000    -0.0155030000
   20      H      -0.7349060000     2.5939660000     1.3499420000
   21      H       0.0133870000     2.2484530000    -0.2247780000
   22      H       1.0294990000     2.4739510000     1.2100800000
 ----------------------------------------------------------------
 Nuclear Repulsion Energy =   564.2516034825 hartrees
 There are       39 alpha and       39 beta electrons
 Requested basis set is 6-31G(d)
 There are 64 shells and 174 basis functions

 Total QAlloc Memory Limit   2000 MB
 Mega-Array Size        61 MB
 MEM_STATIC part        62 MB
 in ParallelAOLoop for JobNumber:  2 JobType:  2 
 A cutoff of  1.0D-10 yielded   1736 shell pairs
 There are     13597 function pairs
 in ParallelAOLoop for JobNumber: 11 JobType: 11 
 DoParallel is ON (aoloop_n) 
 
 -------------------------------------------------------
 OpenMP Integral Computing Module                       
 Release: version 1.0, May 2013, Q-Chem Inc. Pittsburgh 
 -------------------------------------------------------
 Integral Job Info:
 Integral job number is                      11
 Integral operator is                         1
 short-range coefficients                     0
 long-range coefficients              100000000
 Omega coefficients                           0
 if combine SR and LR in K                    0
 Integral screening is                        0
 Integral computing path is                   2
 max size of driver memory is            800000
 size of driver memory is                593474
 size of scratch memory is              2260544
 max col of scratch BK array               1296
 max len of scratch array in speh3          155
 max len of scratch index in speh4           18
 max int batch size is                      520
 min int batch size is                       52
 fixed nKL is                                52
 max L of basis functions is                  2
 order of int derivative is                   0
 number of shells is                         64
 number of basis is                         174
 number of cartesian basis is               174
 number of contracted shell pairs          1736
 number of primitive shell pairs           6148
 maxK2 (contraction) of shell pair           36
 max number of K2 of shell pair               1
 max number of CS2 of shell pair            232
 max number of PS2 of shell pair            954
 mem total for path MDJ                   41176
 -------------------------------------------------------
 Smallest overlap matrix eigenvalue = 2.67E-03

 Scale SEOQF with 1.000000e-01/1.000000e-01/1.000000e-01

 Standard Electronic Orientation quadrupole field applied
 Nucleus-field energy     =     0.0000000031 hartrees
 length of FILE_MO_COEFS: 0 
 Guess from superposition of atomic densities
 Warning:  Energy on first SCF cycle will be non-variational
 A restricted hybrid HF-DFT SCF calculation will be
 performed using Relaxed Constraint Minimization + Pulay DIIS
 Exchange:     0.2000 Hartree-Fock + 0.0800 Slater + 0.7200 B88
 Correlation:  0.1900 VWN1RPA + 0.8100 LYP
 Using SG-1 standard quadrature grid
 SCF converges when DIIS error is below 1.0E-06
 in ParallelAOLoop for JobNumber: 22 JobType: 22 
 ---------------------------------------
  Cycle       Energy         DIIS Error
 ---------------------------------------
    1    -497.6574443718      6.06E-02
 in ParallelAOLoop for JobNumber: 22 JobType: 22 
    2    -495.5978576611      8.84E-03
 in ParallelAOLoop for JobNumber: 22 JobType: 22 
    3    -495.6871234113      2.86E-03
 in ParallelAOLoop for JobNumber: 22 JobType: 22 
    4    -495.8182710571      2.84E-03
 in ParallelAOLoop for JobNumber: 22 JobType: 22 
    5    -495.8325554461      3.90E-04 Done RCA. Switching to DIIS
 in ParallelAOLoop for JobNumber: 22 JobType: 22 
    6    -495.8497395508      5.45E-04
 in ParallelAOLoop for JobNumber: 22 JobType: 22 
    7    -495.8506744395      5.85E-05
 in ParallelAOLoop for JobNumber: 22 JobType: 22 
    8    -495.8506814863      3.51E-05
 in ParallelAOLoop for JobNumber: 22 JobType: 22 
    9    -495.8506850545      7.06E-06
 in ParallelAOLoop for JobNumber: 22 JobType: 22 
   10    -495.8506852139      1.56E-06
 in ParallelAOLoop for JobNumber: 22 JobType: 22 
   11    -495.8506852235      3.18E-07 Convergence criterion met
 ---------------------------------------
 SCF time:  CPU 84.15 s  wall 84.32 s
 SCF   energy in the final basis set = -495.8506852235
 Total energy in the final basis set = -495.8506852235
 No wavefunction analysis requested
 Calculating analytic gradient of the SCF energy
 in ParallelAOLoop for JobNumber: 111 JobType: 11 
 DoParallel is ON (aoloop_n) 
 in ParallelAOLoop for JobNumber: 122 JobType: 22 
 Gradient of SCF Energy
            1           2           3           4           5           6
    1   0.0004193   0.0002356   0.0013291  -0.0004061   0.0003827   0.0004195
    2  -0.0003197  -0.0002742  -0.0000565   0.0007754  -0.0005703   0.0013067
    3   0.0000806   0.0001084   0.0009691  -0.0003448  -0.0003253  -0.0001545
            7           8           9          10          11          12
    1  -0.0000371  -0.0002650   0.0003138  -0.0000292   0.0000376  -0.0003804
    2  -0.0002489  -0.0000531   0.0003741  -0.0003511   0.0006018   0.0003681
    3  -0.0000606   0.0000729  -0.0001412  -0.0001318   0.0003901  -0.0005478
           13          14          15          16          17          18
    1  -0.0005902  -0.0008744  -0.0002677  -0.0001412  -0.0003277   0.0001445
    2  -0.0003780   0.0001092   0.0000541  -0.0005352   0.0004473  -0.0004003
    3   0.0003485  -0.0009187  -0.0001322   0.0005028   0.0002461   0.0003129
           19          20          21          22
    1   0.0001336   0.0005566   0.0000636  -0.0007169
    2  -0.0000703  -0.0002435  -0.0002250  -0.0003106
    3  -0.0003161  -0.0002255   0.0004910  -0.0002239
 Max gradient component =       1.329E-03
 RMS gradient           =       4.468E-04
 Gradient time:  CPU 24.39 s  wall 24.40 s
 Geometry Optimization Parameters
   NAtoms,    NIC,     NZ,  NCons,   NDum,   NFix, NCnnct, MaxDiis
       22     142       0       0       0       0       0       0


** GEOMETRY OPTIMIZATION IN DELOCALIZED INTERNAL COORDINATES **
   Searching for a Minimum

   Optimization Cycle:   1

                       Coordinates (Angstroms)
     ATOM                X               Y               Z
      1  C         2.6437850000   -1.1210280000   -1.0739910000
      2  C         1.4408900000   -0.2576530000   -0.7315620000
      3  N         1.1135490000   -0.1982380000    0.5876180000
      4  C        -0.0029800000    0.5688390000    1.1733330000
      5  C        -1.3908250000   -0.0483910000    0.8630460000
      6  N        -1.7684390000   -0.0123580000   -0.4411950000
      7  C        -3.0156980000   -0.6024640000   -0.8930160000
      8  O         0.8225290000    0.3444450000   -1.6135010000
      9  C         0.0811550000    2.0659920000    0.8475560000
     10  O        -2.0825020000   -0.4923290000    1.7752550000
     11  H         2.3237710000   -1.9148760000   -1.7546020000
     12  H         3.1316470000   -1.5686350000   -0.2044170000
     13  H         3.3698020000   -0.5054020000   -1.6110880000
     14  H         1.5939960000   -0.8296280000    1.2103370000
     15  H         0.0946560000    0.4396090000    2.2530200000
     16  H        -1.0592730000    0.2485750000   -1.1228790000
     17  H        -2.8497260000   -1.5468210000   -1.4265380000
     18  H        -3.5450700000    0.0846900000   -1.5609480000
     19  H        -3.6318170000   -0.8009370000   -0.0155030000
     20  H        -0.7349060000    2.5939660000    1.3499420000
     21  H         0.0133870000    2.2484530000   -0.2247780000
     22  H         1.0294990000    2.4739510000    1.2100800000
   Point Group: c1    Number of degrees of freedom:    60


   Energy is   -495.850685223


 Attempting to Generate Delocalized Internal Coordinates

 60 Hessian modes will be used to form the next step
  Hessian Eigenvalues:
     0.002528    0.004616    0.005613    0.006567    0.008780    0.010466
     0.012133    0.012486    0.014539    0.020873    0.021164    0.036284
     0.052441    0.055862    0.058269    0.066157    0.068994    0.072919
     0.076380    0.076521    0.157006    0.158947    0.160000    0.160000
     0.160000    0.160000    0.160000    0.160000    0.160000    0.160000
     0.160000    0.185263    0.193955    0.220301    0.220673    0.249850
     0.249997    0.250000    0.250000    0.276274    0.290121    0.303910
     0.339858    0.342658    0.343350    0.343406    0.344065    0.344724
     0.344750    0.346091    0.347638    0.348294    0.350502    0.379967
     0.447085    0.462088    0.528497    0.532959    0.894477    0.919868

 Minimum Search - Taking Simple RFO Step
 Searching for Lamda that Minimizes Along All modes
 Value Taken    Lamda =  -0.00015358
 Step Taken.  Stepsize is  0.170342

                             Maximum     Tolerance    Cnvgd?
         Gradient           0.001401      0.000300      NO
         Displacement       0.092693      0.001200      NO
         Energy change     *********      0.000001      NO


 New Cartesian Coordinates Obtained by Inverse Iteration

 Displacement from previous Coordinates is:  0.350390
 ----------------------------------------------------------------
             Standard Nuclear Orientation (Angstroms)
    I     Atom           X                Y                Z
 ----------------------------------------------------------------
    1      C       2.6421255760    -1.1087536415    -1.0856822076
    2      C       1.4336030246    -0.2522139169    -0.7410413887
    3      N       1.0987684553    -0.2077226630     0.5774001203
    4      C      -0.0072344053     0.5664879590     1.1746020520
    5      C      -1.4065635993    -0.0273828620     0.8671675663
    6      N      -1.7600231699    -0.0450597892    -0.4447970440
    7      C      -3.0151407650    -0.6191624995    -0.8948812094
    8      O       0.8252828895     0.3649487649    -1.6194939049
    9      C       0.0924314760     2.0667310772     0.8646916823
   10      O      -2.1252973174    -0.4085180898     1.7867947897
   11      H       2.3311085370    -1.8946606169    -1.7812243390
   12      H       3.1235724177    -1.5687968349    -0.2175504021
   13      H       3.3731957748    -0.4836032497    -1.6070981387
   14      H       1.5869326604    -0.8359031596     1.1993186801
   15      H       0.0955914893     0.4266486473     2.2527328872
   16      H      -1.0346443713     0.1732789772    -1.1254124059
   17      H      -2.8646723895    -1.5913971940    -1.3827420167
   18      H      -3.5108407031     0.0529147767    -1.6040338124
   19      H      -3.6534493976    -0.7598844006    -0.0214884245
   20      H      -0.7167836128     2.5978715155     1.3768473983
   21      H       0.0216571645     2.2631065425    -0.2057993550
   22      H       1.0478102662     2.4608306573     1.2278584727
 ----------------------------------------------------------------
 Nuclear Repulsion Energy =   563.7809069003 hartrees
 There are       39 alpha and       39 beta electrons
 Applying Cartesian multipole field
    Component          Value
    ---------          -----
     (2,0,0)        1.00000E-11
     (0,2,0)        2.00000E-11
     (0,0,2)       -3.00000E-11
 Nucleus-field energy     =     0.0000000029 hartrees
 length of FILE_MO_COEFS: 60900 
 Requested basis set is 6-31G(d)
 There are 64 shells and 174 basis functions
 in ParallelAOLoop for JobNumber:  2 JobType:  2 
 A cutoff of  1.0D-10 yielded   1739 shell pairs
 There are     13636 function pairs
 in ParallelAOLoop for JobNumber: 11 JobType: 11 
 DoParallel is ON (aoloop_n) 
 Smallest overlap matrix eigenvalue = 2.71E-03
 Guess MOs from SCF MO coefficient file
 Reading MOs from coefficient file
 Reading MOs from coefficient file
 A restricted hybrid HF-DFT SCF calculation will be
 performed using Relaxed Constraint Minimization + Pulay DIIS
 Exchange:     0.2000 Hartree-Fock + 0.0800 Slater + 0.7200 B88
 Correlation:  0.1900 VWN1RPA + 0.8100 LYP
 Using SG-1 standard quadrature grid
 SCF converges when DIIS error is below 1.0E-06
 Geometry optimization detected.  Setting ReadMinima to 0
 Setting SaveMinima to 0
 in ParallelAOLoop for JobNumber: 22 JobType: 22 
 Inaccurate integrated density:
   Number of electrons =    78
   Numerical integral  =    77.986029022325
   Relative error      =    -0.0179115098 %
 Inaccurate integrated density:
   Number of electrons =    78
   Numerical integral  =    77.986029022325
   Relative error      =    -0.0179115098 %
 ---------------------------------------
  Cycle       Energy         DIIS Error
 ---------------------------------------
    1    -495.8416821705      1.66E-03
 in ParallelAOLoop for JobNumber: 22 JobType: 22 
    2    -495.8506587509      1.10E-04 Done RCA. Switching to DIIS
 in ParallelAOLoop for JobNumber: 22 JobType: 22 
    3    -495.8506889261      1.21E-04
 in ParallelAOLoop for JobNumber: 22 JobType: 22 
    4    -495.8507289791      5.29E-05
 in ParallelAOLoop for JobNumber: 22 JobType: 22 
    5    -495.8507362691      1.86E-05
 in ParallelAOLoop for JobNumber: 22 JobType: 22 
    6    -495.8507372690      5.28E-06
 in ParallelAOLoop for JobNumber: 22 JobType: 22 
    7    -495.8507373463      1.71E-06
 in ParallelAOLoop for JobNumber: 22 JobType: 22 
    8    -495.8507373551      5.11E-07 Convergence criterion met
 ---------------------------------------
 SCF time:  CPU 56.00 s  wall 55.89 s
 SCF   energy in the final basis set = -495.8507373551
 Total energy in the final basis set = -495.8507373551
 No wavefunction analysis requested
 Calculating analytic gradient of the SCF energy
 in ParallelAOLoop for JobNumber: 111 JobType: 11 
 DoParallel is ON (aoloop_n) 
 in ParallelAOLoop for JobNumber: 122 JobType: 22 
 Gradient of SCF Energy
            1           2           3           4           5           6
    1   0.0002556  -0.0018223   0.0009232  -0.0004832   0.0003714  -0.0005819
    2   0.0003028  -0.0010865   0.0005970   0.0008064  -0.0001327   0.0013637
    3   0.0000032  -0.0008883   0.0010706  -0.0002693   0.0002356  -0.0004758
            7           8           9          10          11          12
    1  -0.0000025   0.0006742   0.0003746   0.0000193  -0.0001134  -0.0000121
    2  -0.0001552   0.0007617  -0.0001263  -0.0007378   0.0000380   0.0000810
    3  -0.0000674   0.0000519  -0.0000263   0.0000287   0.0000094   0.0000300
           13          14          15          16          17          18
    1   0.0000726  -0.0002775  -0.0000286   0.0003965   0.0000212  -0.0000078
    2  -0.0000679  -0.0003712   0.0000830  -0.0015621   0.0000028   0.0000102
    3  -0.0000260  -0.0000192   0.0000174   0.0002375  -0.0000094  -0.0000312
           19          20          21          22
    1   0.0000734   0.0000348   0.0000923   0.0000202
    2   0.0000326   0.0000917   0.0000815  -0.0000128
    3   0.0000292  -0.0000183   0.0001589  -0.0000410
 Max gradient component =       1.822E-03
 RMS gradient           =       4.944E-04
 Gradient time:  CPU 23.73 s  wall 23.76 s
 Geometry Optimization Parameters
   NAtoms,    NIC,     NZ,  NCons,   NDum,   NFix, NCnnct, MaxDiis
       22     142       0       0       0       0       0       0

 Cartesian Hessian Update
 Hessian Updated using BFGS Update


** GEOMETRY OPTIMIZATION IN DELOCALIZED INTERNAL COORDINATES **
   Searching for a Minimum

   Optimization Cycle:   2

                       Coordinates (Angstroms)
     ATOM                X               Y               Z
      1  C         2.6421255760   -1.1087536415   -1.0856822076
      2  C         1.4336030246   -0.2522139169   -0.7410413887
      3  N         1.0987684553   -0.2077226630    0.5774001203
      4  C        -0.0072344053    0.5664879590    1.1746020520
      5  C        -1.4065635993   -0.0273828620    0.8671675663
      6  N        -1.7600231699   -0.0450597892   -0.4447970440
      7  C        -3.0151407650   -0.6191624995   -0.8948812094
      8  O         0.8252828895    0.3649487649   -1.6194939049
      9  C         0.0924314760    2.0667310772    0.8646916823
     10  O        -2.1252973174   -0.4085180898    1.7867947897
     11  H         2.3311085370   -1.8946606169   -1.7812243390
     12  H         3.1235724177   -1.5687968349   -0.2175504021
     13  H         3.3731957748   -0.4836032497   -1.6070981387
     14  H         1.5869326604   -0.8359031596    1.1993186801
     15  H         0.0955914893    0.4266486473    2.2527328872
     16  H        -1.0346443713    0.1732789772   -1.1254124059
     17  H        -2.8646723895   -1.5913971940   -1.3827420167
     18  H        -3.5108407031    0.0529147767   -1.6040338124
     19  H        -3.6534493976   -0.7598844006   -0.0214884245
     20  H        -0.7167836128    2.5978715155    1.3768473983
     21  H         0.0216571645    2.2631065425   -0.2057993550
     22  H         1.0478102662    2.4608306573    1.2278584727
   Point Group: c1    Number of degrees of freedom:    60


   Energy is   -495.850737355

 Hessian Updated using BFGS Update

 53 Hessian modes will be used to form the next step
  Hessian Eigenvalues:
     0.002295    0.004613    0.006257    0.006582    0.007992    0.008971
     0.010937    0.013378    0.017178    0.020821    0.034244    0.035891
     0.052411    0.055814    0.058261    0.065727    0.069005    0.072886
     0.076369    0.076518    0.153660    0.157629    0.159096    0.160622
     0.181926    0.193304    0.211601    0.225538    0.249564    0.249994
     0.250000    0.251620    0.277491    0.290626    0.304123    0.339908
     0.342664    0.342809    0.343402    0.343845    0.344415    0.344792
     0.346080    0.347506    0.348132    0.353436    0.379978    0.445844
     0.462663    0.530859    0.538562    0.894464    0.920072

 Minimum Search - Taking Simple RFO Step
 Searching for Lamda that Minimizes Along All modes
 Value Taken    Lamda =  -0.00031795
 Step Taken.  Stepsize is  0.222116

                             Maximum     Tolerance    Cnvgd?
         Gradient           0.002197      0.000300      NO
         Displacement       0.081487      0.001200      NO
         Energy change     -0.000052      0.000001      NO


 New Cartesian Coordinates Obtained by Inverse Iteration

 Displacement from previous Coordinates is:  0.383463
 ----------------------------------------------------------------
             Standard Nuclear Orientation (Angstroms)
    I     Atom           X                Y                Z
 ----------------------------------------------------------------
    1      C       2.6851081161    -1.0956027402    -1.0798896132
    2      C       1.4426233292    -0.2765024424    -0.7556486354
    3      N       1.0941329260    -0.2297647837     0.5598536236
    4      C      -0.0097543949     0.5448070687     1.1636620504
    5      C      -1.4211345538    -0.0285082262     0.8675492805
    6      N      -1.7777986373    -0.0621421363    -0.4441984427
    7      C      -3.0489960604    -0.6029796622    -0.8891498232
    8      O       0.8165118085     0.3000677623    -1.6489477155
    9      C       0.0898603883     2.0488793385     0.8663195911
   10      O      -2.1526833877    -0.3559036237     1.7975114110
   11      H       2.4115293607    -1.9035146588    -1.7692784593
   12      H       3.1758004952    -1.5291330558    -0.2003755422
   13      H       3.4011027760    -0.4502635188    -1.6025220710
   14      H       1.6249861078    -0.8084500938     1.1984162446
   15      H       0.1036269841     0.3997239686     2.2405348074
   16      H      -1.0615458802     0.1685950880    -1.1326551324
   17      H      -2.9214894388    -1.5789907316    -1.3798570838
   18      H      -3.5289616974     0.0846548702    -1.5966479972
   19      H      -3.6876069997    -0.7278336644    -0.0123630905
   20      H      -0.7185206577     2.5747538001     1.3892663195
   21      H       0.0109528076     2.2571146273    -0.2031500313
   22      H       1.0496866083     2.4407528142     1.2277393095
 ----------------------------------------------------------------
 Nuclear Repulsion Energy =   562.2591843145 hartrees
 There are       39 alpha and       39 beta electrons
 Applying Cartesian multipole field
    Component          Value
    ---------          -----
     (2,0,0)        1.00000E-11
     (0,2,0)        2.00000E-11
     (0,0,2)       -3.00000E-11
 Nucleus-field energy     =     0.0000000030 hartrees
 length of FILE_MO_COEFS: 60900 
 Requested basis set is 6-31G(d)
 There are 64 shells and 174 basis functions
 in ParallelAOLoop for JobNumber:  2 JobType:  2 
 A cutoff of  1.0D-10 yielded   1732 shell pairs
 There are     13525 function pairs
 in ParallelAOLoop for JobNumber: 11 JobType: 11 
 DoParallel is ON (aoloop_n) 
 Smallest overlap matrix eigenvalue = 2.78E-03
 Guess MOs from SCF MO coefficient file
 Reading MOs from coefficient file
 Reading MOs from coefficient file
 A restricted hybrid HF-DFT SCF calculation will be
 performed using Relaxed Constraint Minimization + Pulay DIIS
 Exchange:     0.2000 Hartree-Fock + 0.0800 Slater + 0.7200 B88
 Correlation:  0.1900 VWN1RPA + 0.8100 LYP
 Using SG-1 standard quadrature grid
 SCF converges when DIIS error is below 1.0E-06
 Geometry optimization detected.  Setting ReadMinima to 0
 Setting SaveMinima to 0
 in ParallelAOLoop for JobNumber: 22 JobType: 22 
 Inaccurate integrated density:
   Number of electrons =    78
   Numerical integral  =    77.979532711153
   Relative error      =    -0.0262401139 %
 Inaccurate integrated density:
   Number of electrons =    78
   Numerical integral  =    77.979532711153
   Relative error      =    -0.0262401139 %
 ---------------------------------------
  Cycle       Energy         DIIS Error
 ---------------------------------------
    1    -495.8355335877      1.47E-03
 in ParallelAOLoop for JobNumber: 22 JobType: 22 
    2    -495.8507226134      9.09E-05 Done RCA. Switching to DIIS
 in ParallelAOLoop for JobNumber: 22 JobType: 22 
    3    -495.8507699016      6.27E-05
 in ParallelAOLoop for JobNumber: 22 JobType: 22 
    4    -495.8507804115      3.34E-05
 in ParallelAOLoop for JobNumber: 22 JobType: 22 
    5    -495.8507830666      1.83E-05
 in ParallelAOLoop for JobNumber: 22 JobType: 22 
    6    -495.8507840248      5.19E-06
 in ParallelAOLoop for JobNumber: 22 JobType: 22 
    7    -495.8507840971      1.45E-06
 in ParallelAOLoop for JobNumber: 22 JobType: 22 
    8    -495.8507841068      3.02E-07 Convergence criterion met
 ---------------------------------------
 SCF time:  CPU 56.14 s  wall 56.02 s
 SCF   energy in the final basis set = -495.8507841068
 Total energy in the final basis set = -495.8507841068
 No wavefunction analysis requested
 Calculating analytic gradient of the SCF energy
 in ParallelAOLoop for JobNumber: 111 JobType: 11 
 DoParallel is ON (aoloop_n) 
 in ParallelAOLoop for JobNumber: 122 JobType: 22 
 Gradient of SCF Energy
            1           2           3           4           5           6
    1  -0.0006351  -0.0004443  -0.0007343  -0.0010837   0.0008163  -0.0024354
    2   0.0007544  -0.0001404   0.0012746   0.0010427  -0.0025187   0.0005959
    3  -0.0000534  -0.0004138  -0.0005983  -0.0000756   0.0015825  -0.0005962
            7           8           9          10          11          12
    1   0.0001174   0.0007521  -0.0000999  -0.0003209  -0.0000705   0.0006700
    2  -0.0000402  -0.0001805  -0.0008131   0.0007998  -0.0013160  -0.0005943
    3   0.0002103  -0.0009718   0.0000132   0.0003415  -0.0008474   0.0011459
           13          14          15          16          17          18
    1   0.0011121   0.0009098   0.0006665   0.0002674   0.0004971  -0.0001130
    2   0.0007322  -0.0014460   0.0001687   0.0004403  -0.0010605   0.0008644
    3  -0.0007149   0.0016111   0.0003517  -0.0010319  -0.0004711  -0.0006646
           19          20          21          22
    1  -0.0001965  -0.0010253  -0.0001328   0.0014830
    2   0.0000313   0.0005503   0.0003486   0.0005065
    3   0.0005952   0.0006188  -0.0005399   0.0005087
 Max gradient component =       2.519E-03
 RMS gradient           =       8.511E-04
 Gradient time:  CPU 24.60 s  wall 24.65 s
 Geometry Optimization Parameters
   NAtoms,    NIC,     NZ,  NCons,   NDum,   NFix, NCnnct, MaxDiis
       22     142       0       0       0       0       0       0

 Cartesian Hessian Update
 Hessian Updated using BFGS Update


** GEOMETRY OPTIMIZATION IN DELOCALIZED INTERNAL COORDINATES **
   Searching for a Minimum

   Optimization Cycle:   3

                       Coordinates (Angstroms)
     ATOM                X               Y               Z
      1  C         2.6851081161   -1.0956027402   -1.0798896132
      2  C         1.4426233292   -0.2765024424   -0.7556486354
      3  N         1.0941329260   -0.2297647837    0.5598536236
      4  C        -0.0097543949    0.5448070687    1.1636620504
      5  C        -1.4211345538   -0.0285082262    0.8675492805
      6  N        -1.7777986373   -0.0621421363   -0.4441984427
      7  C        -3.0489960604   -0.6029796622   -0.8891498232
      8  O         0.8165118085    0.3000677623   -1.6489477155
      9  C         0.0898603883    2.0488793385    0.8663195911
     10  O        -2.1526833877   -0.3559036237    1.7975114110
     11  H         2.4115293607   -1.9035146588   -1.7692784593
     12  H         3.1758004952   -1.5291330558   -0.2003755422
     13  H         3.4011027760   -0.4502635188   -1.6025220710
     14  H         1.6249861078   -0.8084500938    1.1984162446
     15  H         0.1036269841    0.3997239686    2.2405348074
     16  H        -1.0615458802    0.1685950880   -1.1326551324
     17  H        -2.9214894388   -1.5789907316   -1.3798570838
     18  H        -3.5289616974    0.0846548702   -1.5966479972
     19  H        -3.6876069997   -0.7278336644   -0.0123630905
     20  H        -0.7185206577    2.5747538001    1.3892663195
     21  H         0.0109528076    2.2571146273   -0.2031500313
     22  H         1.0496866083    2.4407528142    1.2277393095
   Point Group: c1    Number of degrees of freedom:    60


   Energy is   -495.850784107

 Hessian Updated using BFGS Update

 54 Hessian modes will be used to form the next step
  Hessian Eigenvalues:
     0.001904    0.004609    0.006086    0.006555    0.008319    0.008912
     0.012443    0.013394    0.016631    0.020864    0.030676    0.045949
     0.053840    0.055964    0.058268    0.065727    0.069007    0.072927
     0.076429    0.076516    0.157352    0.158934    0.159445    0.160400
     0.161303    0.181521    0.193700    0.221540    0.243765    0.249569
     0.250000    0.250202    0.272967    0.290334    0.291744    0.306547
     0.340205    0.342754    0.343381    0.343755    0.344364    0.344731
     0.346059    0.347486    0.347921    0.351166    0.379966    0.388864
     0.448049    0.472515    0.530593    0.562255    0.894622    0.919875

 Minimum Search - Taking Simple RFO Step
 Searching for Lamda that Minimizes Along All modes
 Value Taken    Lamda =  -0.00027546
 Step Taken.  Stepsize is  0.123535

                             Maximum     Tolerance    Cnvgd?
         Gradient           0.004334      0.000300      NO
         Displacement       0.064829      0.001200      NO
         Energy change     -0.000047      0.000001      NO


 New Cartesian Coordinates Obtained by Inverse Iteration

 Displacement from previous Coordinates is:  0.313701
 ----------------------------------------------------------------
             Standard Nuclear Orientation (Angstroms)
    I     Atom           X                Y                Z
 ----------------------------------------------------------------
    1      C       2.6532009702    -1.0943680261    -1.0936343780
    2      C       1.4166882015    -0.2759151306    -0.7496148779
    3      N       1.0895455265    -0.2257618465     0.5697974137
    4      C      -0.0089234510     0.5487094849     1.1802973497
    5      C      -1.4211762757    -0.0110563755     0.8718845739
    6      N      -1.7482110148    -0.0750694741    -0.4450688677
    7      C      -3.0153035674    -0.6136567882    -0.9042983861
    8      O       0.7580763954     0.2780680824    -1.6336533718
    9      C       0.0951217401     2.0520259821     0.8824539935
   10      O      -2.1687346373    -0.3241609776     1.7938069009
   11      H       2.3663529200    -1.9068238225    -1.7704873448
   12      H       3.1637214765    -1.5199174938    -0.2227318992
   13      H       3.3547235905    -0.4512813757    -1.6361231147
   14      H       1.6402824168    -0.7873511388     1.2047951509
   15      H       0.0989670444     0.3988022030     2.2567837031
   16      H      -1.0203869282     0.1501427284    -1.1225757312
   17      H      -2.8875618783    -1.5972511017    -1.3775639094
   18      H      -3.4786220377     0.0652456726    -1.6300004964
   19      H      -3.6704795438    -0.7207252182    -0.0379162622
   20      H      -0.7146997546     2.5794618408     1.3996470771
   21      H       0.0223115551     2.2578811397    -0.1876946654
   22      H       1.0525372518     2.4427616351     1.2480661421
 ----------------------------------------------------------------
 Nuclear Repulsion Energy =   564.0801187317 hartrees
 There are       39 alpha and       39 beta electrons
 Applying Cartesian multipole field
    Component          Value
    ---------          -----
     (2,0,0)        1.00000E-11
     (0,2,0)        2.00000E-11
     (0,0,2)       -3.00000E-11
 Nucleus-field energy     =     0.0000000027 hartrees
 length of FILE_MO_COEFS: 60900 
 Requested basis set is 6-31G(d)
 There are 64 shells and 174 basis functions
 in ParallelAOLoop for JobNumber:  2 JobType:  2 
 A cutoff of  1.0D-10 yielded   1739 shell pairs
 There are     13636 function pairs
 in ParallelAOLoop for JobNumber: 11 JobType: 11 
 DoParallel is ON (aoloop_n) 
 Smallest overlap matrix eigenvalue = 2.74E-03
 Guess MOs from SCF MO coefficient file
 Reading MOs from coefficient file
 Reading MOs from coefficient file
 A restricted hybrid HF-DFT SCF calculation will be
 performed using Relaxed Constraint Minimization + Pulay DIIS
 Exchange:     0.2000 Hartree-Fock + 0.0800 Slater + 0.7200 B88
 Correlation:  0.1900 VWN1RPA + 0.8100 LYP
 Using SG-1 standard quadrature grid
 SCF converges when DIIS error is below 1.0E-06
 Geometry optimization detected.  Setting ReadMinima to 0
 Setting SaveMinima to 0
 in ParallelAOLoop for JobNumber: 22 JobType: 22 
 ---------------------------------------
  Cycle       Energy         DIIS Error
 ---------------------------------------
    1    -495.8592019100      1.12E-03
 in ParallelAOLoop for JobNumber: 22 JobType: 22 
    2    -495.8506622951      8.93E-05 Done RCA. Switching to DIIS
 in ParallelAOLoop for JobNumber: 22 JobType: 22 
    3    -495.8506764658      9.36E-05
 in ParallelAOLoop for JobNumber: 22 JobType: 22 
    4    -495.8507017199      2.56E-05
 in ParallelAOLoop for JobNumber: 22 JobType: 22 
    5    -495.8507035744      9.92E-06
 in ParallelAOLoop for JobNumber: 22 JobType: 22 
    6    -495.8507037967      6.55E-06
 in ParallelAOLoop for JobNumber: 22 JobType: 22 
    7    -495.8507039133      1.44E-06
 in ParallelAOLoop for JobNumber: 22 JobType: 22 
    8    -495.8507039193      2.30E-07 Convergence criterion met
 ---------------------------------------
 SCF time:  CPU 53.46 s  wall 53.30 s
 SCF   energy in the final basis set = -495.8507039193
 Total energy in the final basis set = -495.8507039193
 No wavefunction analysis requested
 Calculating analytic gradient of the SCF energy
 in ParallelAOLoop for JobNumber: 111 JobType: 11 
 DoParallel is ON (aoloop_n) 
 in ParallelAOLoop for JobNumber: 122 JobType: 22 
 Gradient of SCF Energy
            1           2           3           4           5           6
    1  -0.0006705   0.0005691  -0.0010937   0.0001211   0.0003974   0.0008627
    2  -0.0004366   0.0032086   0.0003183  -0.0003114   0.0009165   0.0004122
    3   0.0000718  -0.0014827  -0.0003711   0.0005298   0.0022588  -0.0015957
            7           8           9          10          11          12
    1   0.0000978  -0.0025493  -0.0004666   0.0003062   0.0001668   0.0004912
    2  -0.0004109  -0.0019164  -0.0007835  -0.0001606  -0.0008722  -0.0005081
    3  -0.0005558   0.0015474  -0.0003795  -0.0006389  -0.0004569   0.0006042
           13          14          15          16          17          18
    1   0.0003934   0.0002843   0.0002885   0.0003228   0.0002003   0.0000233
    2   0.0005028  -0.0009099   0.0001684   0.0001207  -0.0005876   0.0004589
    3  -0.0003350   0.0009154   0.0003142  -0.0005136  -0.0002158  -0.0003176
           19          20          21          22
    1   0.0000378  -0.0005992   0.0000124   0.0008043
    2   0.0001546   0.0002274   0.0003226   0.0000863
    3   0.0003426   0.0003974  -0.0003818   0.0002628
 Max gradient component =       3.209E-03
 RMS gradient           =       8.399E-04
 Gradient time:  CPU 23.66 s  wall 23.70 s
 Geometry Optimization Parameters
   NAtoms,    NIC,     NZ,  NCons,   NDum,   NFix, NCnnct, MaxDiis
       22     142       0       0       0       0       0       0

 Cartesian Hessian Update
 Hessian Updated using BFGS Update


** GEOMETRY OPTIMIZATION IN DELOCALIZED INTERNAL COORDINATES **
   Searching for a Minimum

   Optimization Cycle:   4

                       Coordinates (Angstroms)
     ATOM                X               Y               Z
      1  C         2.6532009702   -1.0943680261   -1.0936343780
      2  C         1.4166882015   -0.2759151306   -0.7496148779
      3  N         1.0895455265   -0.2257618465    0.5697974137
      4  C        -0.0089234510    0.5487094849    1.1802973497
      5  C        -1.4211762757   -0.0110563755    0.8718845739
      6  N        -1.7482110148   -0.0750694741   -0.4450688677
      7  C        -3.0153035674   -0.6136567882   -0.9042983861
      8  O         0.7580763954    0.2780680824   -1.6336533718
      9  C         0.0951217401    2.0520259821    0.8824539935
     10  O        -2.1687346373   -0.3241609776    1.7938069009
     11  H         2.3663529200   -1.9068238225   -1.7704873448
     12  H         3.1637214765   -1.5199174938   -0.2227318992
     13  H         3.3547235905   -0.4512813757   -1.6361231147
     14  H         1.6402824168   -0.7873511388    1.2047951509
     15  H         0.0989670444    0.3988022030    2.2567837031
     16  H        -1.0203869282    0.1501427284   -1.1225757312
     17  H        -2.8875618783   -1.5972511017   -1.3775639094
     18  H        -3.4786220377    0.0652456726   -1.6300004964
     19  H        -3.6704795438   -0.7207252182   -0.0379162622
     20  H        -0.7146997546    2.5794618408    1.3996470771
     21  H         0.0223115551    2.2578811397   -0.1876946654
     22  H         1.0525372518    2.4427616351    1.2480661421
   Point Group: c1    Number of degrees of freedom:    60


   Energy is   -495.850703919

 Hessian Updated using BFGS Update

 55 Hessian modes will be used to form the next step
  Hessian Eigenvalues:
     0.002311    0.004587    0.006473    0.006906    0.007919    0.008757
     0.013057    0.015599    0.016958    0.021564    0.036096    0.051383
     0.054419    0.055943    0.058287    0.066482    0.069022    0.072926
     0.076312    0.076527    0.151545    0.157691    0.159075    0.159601
     0.160093    0.160871    0.179799    0.194100    0.216413    0.239600
     0.248896    0.249583    0.250209    0.274370    0.289973    0.296961
     0.320435    0.340295    0.342727    0.343193    0.343485    0.343802
     0.344390    0.344899    0.346083    0.347521    0.347969    0.379972
     0.443704    0.455149    0.513304    0.518109    0.606703    0.896329
     0.921595

 Minimum Search - Taking Simple RFO Step
 Searching for Lamda that Minimizes Along All modes
 Value Taken    Lamda =  -0.00063710
 Step Taken.  Stepsize is  0.156274

                             Maximum     Tolerance    Cnvgd?
         Gradient           0.010261      0.000300      NO
         Displacement       0.103947      0.001200      NO
         Energy change      0.000080      0.000001      NO


 New Cartesian Coordinates Obtained by Inverse Iteration

 Displacement from previous Coordinates is:  0.422852
 ----------------------------------------------------------------
             Standard Nuclear Orientation (Angstroms)
    I     Atom           X                Y                Z
 ----------------------------------------------------------------
    1      C       2.6661791466    -1.0861199634    -1.0839880397
    2      C       1.4489624475    -0.2444752043    -0.7399007719
    3      N       1.0857198546    -0.2381027383     0.5687920640
    4      C      -0.0106945314     0.5425034734     1.1717692287
    5      C      -1.4246002920    -0.0134049016     0.8705810078
    6      N      -1.7580946866    -0.0845892669    -0.4411546480
    7      C      -3.0345099704    -0.6160673433    -0.8830445204
    8      O       0.8389070614     0.3759447344    -1.6146583889
    9      C       0.0974757854     2.0399258072     0.8515069527
   10      O      -2.1634223837    -0.3353979517     1.7964741621
   11      H       2.3720209826    -1.8487754042    -1.8091822284
   12      H       3.1310426102    -1.5715096058    -0.2225039360
   13      H       3.4036965044    -0.4428142592    -1.5696592144
   14      H       1.6091903671    -0.8278198674     1.1960376022
   15      H       0.0895781591     0.4015779368     2.2493999294
   16      H      -1.0359028806     0.1392448607    -1.1229176115
   17      H      -2.9224496053    -1.5982279408    -1.3578483462
   18      H      -3.5067004725     0.0625521341    -1.6002769840
   19      H      -3.6786325768    -0.7213063701    -0.0095604782
   20      H      -0.7120906851     2.5770039892     1.3535175440
   21      H       0.0312149046     2.2246089734    -0.2215673639
   22      H       1.0505402610     2.4350089081     1.2143530408
 ----------------------------------------------------------------
 Nuclear Repulsion Energy =   563.9496263382 hartrees
 There are       39 alpha and       39 beta electrons
 Applying Cartesian multipole field
    Component          Value
    ---------          -----
     (2,0,0)        1.00000E-11
     (0,2,0)        2.00000E-11
     (0,0,2)       -3.00000E-11
 Nucleus-field energy     =     0.0000000030 hartrees
 length of FILE_MO_COEFS: 60900 
 Requested basis set is 6-31G(d)
 There are 64 shells and 174 basis functions
 in ParallelAOLoop for JobNumber:  2 JobType:  2 
 A cutoff of  1.0D-10 yielded   1737 shell pairs
 There are     13574 function pairs
 in ParallelAOLoop for JobNumber: 11 JobType: 11 
 DoParallel is ON (aoloop_n) 
 Smallest overlap matrix eigenvalue = 2.70E-03
 Guess MOs from SCF MO coefficient file
 Reading MOs from coefficient file
 Reading MOs from coefficient file
 A restricted hybrid HF-DFT SCF calculation will be
 performed using Relaxed Constraint Minimization + Pulay DIIS
 Exchange:     0.2000 Hartree-Fock + 0.0800 Slater + 0.7200 B88
 Correlation:  0.1900 VWN1RPA + 0.8100 LYP
 Using SG-1 standard quadrature grid
 SCF converges when DIIS error is below 1.0E-06
 Geometry optimization detected.  Setting ReadMinima to 0
 Setting SaveMinima to 0
 in ParallelAOLoop for JobNumber: 22 JobType: 22 
 ---------------------------------------
  Cycle       Energy         DIIS Error
 ---------------------------------------
    1    -495.8526432293      1.84E-03
 in ParallelAOLoop for JobNumber: 22 JobType: 22 
    2    -495.8506009763      1.82E-04 Done RCA. Switching to DIIS
 in ParallelAOLoop for JobNumber: 22 JobType: 22 
    3    -495.8505070764      2.88E-04
 in ParallelAOLoop for JobNumber: 22 JobType: 22 
    4    -495.8507532637      6.53E-05
 in ParallelAOLoop for JobNumber: 22 JobType: 22 
    5    -495.8507648439      2.20E-05
 in ParallelAOLoop for JobNumber: 22 JobType: 22 
    6    -495.8507663237      7.05E-06
 in ParallelAOLoop for JobNumber: 22 JobType: 22 
    7    -495.8507664623      2.62E-06
 in ParallelAOLoop for JobNumber: 22 JobType: 22 
    8    -495.8507664816      6.47E-07 Convergence criterion met
 ---------------------------------------
 SCF time:  CPU 53.93 s  wall 53.77 s
 SCF   energy in the final basis set = -495.8507664816
 Total energy in the final basis set = -495.8507664816
 No wavefunction analysis requested
 Calculating analytic gradient of the SCF energy
 in ParallelAOLoop for JobNumber: 111 JobType: 11 
 DoParallel is ON (aoloop_n) 
 in ParallelAOLoop for JobNumber: 122 JobType: 22 
 Gradient of SCF Energy
            1           2           3           4           5           6
    1   0.0000924   0.0007771   0.0011055   0.0000185  -0.0017751   0.0008052
    2  -0.0009351   0.0007055  -0.0005094  -0.0014710   0.0033584   0.0004235
    3  -0.0001032   0.0002755  -0.0004600   0.0005059  -0.0007555   0.0012677
            7           8           9          10          11          12
    1   0.0000078   0.0004948   0.0004863   0.0008966   0.0002007  -0.0003753
    2  -0.0004075   0.0003767  -0.0005091  -0.0011511   0.0008140   0.0004621
    3   0.0001783   0.0012234  -0.0000432  -0.0006109   0.0007233  -0.0007815
           13          14          15          16          17          18
    1  -0.0009912  -0.0006416  -0.0005537   0.0002382  -0.0004572   0.0002307
    2  -0.0004767   0.0010870  -0.0001760  -0.0006816   0.0007286  -0.0006632
    3   0.0006080  -0.0012564  -0.0002399   0.0004305   0.0003112   0.0005265
           19          20          21          22
    1  -0.0001212   0.0006749  -0.0000588  -0.0010546
    2  -0.0000515  -0.0004899   0.0000575  -0.0004914
    3  -0.0005037  -0.0006643  -0.0002355  -0.0003962
 Max gradient component =       3.358E-03
 RMS gradient           =       7.914E-04
 Gradient time:  CPU 22.39 s  wall 22.42 s
 Geometry Optimization Parameters
   NAtoms,    NIC,     NZ,  NCons,   NDum,   NFix, NCnnct, MaxDiis
       22     142       0       0       0       0       0       0

 Cartesian Hessian Update
 Hessian Updated using BFGS Update


** GEOMETRY OPTIMIZATION IN DELOCALIZED INTERNAL COORDINATES **
   Searching for a Minimum

   Optimization Cycle:   5

                       Coordinates (Angstroms)
     ATOM                X               Y               Z
      1  C         2.6661791466   -1.0861199634   -1.0839880397
      2  C         1.4489624475   -0.2444752043   -0.7399007719
      3  N         1.0857198546   -0.2381027383    0.5687920640
      4  C        -0.0106945314    0.5425034734    1.1717692287
      5  C        -1.4246002920   -0.0134049016    0.8705810078
      6  N        -1.7580946866   -0.0845892669   -0.4411546480
      7  C        -3.0345099704   -0.6160673433   -0.8830445204
      8  O         0.8389070614    0.3759447344   -1.6146583889
      9  C         0.0974757854    2.0399258072    0.8515069527
     10  O        -2.1634223837   -0.3353979517    1.7964741621
     11  H         2.3720209826   -1.8487754042   -1.8091822284
     12  H         3.1310426102   -1.5715096058   -0.2225039360
     13  H         3.4036965044   -0.4428142592   -1.5696592144
     14  H         1.6091903671   -0.8278198674    1.1960376022
     15  H         0.0895781591    0.4015779368    2.2493999294
     16  H        -1.0359028806    0.1392448607   -1.1229176115
     17  H        -2.9224496053   -1.5982279408   -1.3578483462
     18  H        -3.5067004725    0.0625521341   -1.6002769840
     19  H        -3.6786325768   -0.7213063701   -0.0095604782
     20  H        -0.7120906851    2.5770039892    1.3535175440
     21  H         0.0312149046    2.2246089734   -0.2215673639
     22  H         1.0505402610    2.4350089081    1.2143530408
   Point Group: c1    Number of degrees of freedom:    60


   Energy is   -495.850766482

 Hessian Updated using BFGS Update

 56 Hessian modes will be used to form the next step
  Hessian Eigenvalues:
     0.002389    0.004611    0.006527    0.007066    0.008742    0.010868
     0.013043    0.014442    0.016844    0.022417    0.043519    0.050256
     0.053986    0.055892    0.058372    0.066350    0.068991    0.072940
     0.076319    0.076519    0.154717    0.157677    0.159059    0.159591
     0.160066    0.160232    0.160737    0.186279    0.210636    0.219353
     0.242036    0.249580    0.250055    0.251774    0.274778    0.290795
     0.300272    0.328059    0.340360    0.341503    0.342767    0.343409
     0.343769    0.344390    0.344781    0.346065    0.347592    0.348842
     0.379978    0.444301    0.455424    0.489817    0.527721    0.558787
     0.894934    0.920096

 Minimum Search - Taking Simple RFO Step
 Searching for Lamda that Minimizes Along All modes
 Value Taken    Lamda =  -0.00041879
 Step Taken.  Stepsize is  0.141802

                             Maximum     Tolerance    Cnvgd?
         Gradient           0.002721      0.000300      NO
         Displacement       0.060999      0.001200      NO
         Energy change     -0.000063      0.000001      NO


 New Cartesian Coordinates Obtained by Inverse Iteration

 Displacement from previous Coordinates is:  0.279833
 ----------------------------------------------------------------
             Standard Nuclear Orientation (Angstroms)
    I     Atom           X                Y                Z
 ----------------------------------------------------------------
    1      C       2.6864708721    -1.0826398632    -1.0820639511
    2      C       1.4400265188    -0.2765139316    -0.7520311115
    3      N       1.0912391704    -0.2406874332     0.5618146646
    4      C      -0.0090093655     0.5357544433     1.1653677836
    5      C      -1.4212818393    -0.0305921505     0.8672750218
    6      N      -1.7616299376    -0.0960425573    -0.4446153268
    7      C      -3.0491856568    -0.6002373022    -0.8850592308
    8      O       0.8153833667     0.3114971013    -1.6392853118
    9      C       0.0903523640     2.0388922076     0.8619112392
   10      O      -2.1719022544    -0.3134202081     1.7968672955
   11      H       2.4169513200    -1.8743009343    -1.7877158573
   12      H       3.1713486352    -1.5309779945    -0.2098247974
   13      H       3.4015893606    -0.4264173051    -1.5873017801
   14      H       1.6332476074    -0.8064630539     1.1981390016
   15      H       0.0976360402     0.3911342245     2.2422387288
   16      H      -1.0399910433     0.1204226037    -1.1299836528
   17      H      -2.9547150819    -1.5828277967    -1.3654513043
   18      H      -3.5103834308     0.0922805824    -1.5979319517
   19      H      -3.6911220742    -0.6974620755    -0.0083979257
   20      H      -0.7201677785     2.5664027987     1.3754310278
   21      H       0.0179268904     2.2367229623    -0.2084986862
   22      H       1.0446463165     2.4352356821     1.2252851248
 ----------------------------------------------------------------
 Nuclear Repulsion Energy =   563.1299115658 hartrees
 There are       39 alpha and       39 beta electrons
 Applying Cartesian multipole field
    Component          Value
    ---------          -----
     (2,0,0)        1.00000E-11
     (0,2,0)        2.00000E-11
     (0,0,2)       -3.00000E-11
 Nucleus-field energy     =     0.0000000029 hartrees
 length of FILE_MO_COEFS: 60900 
 Requested basis set is 6-31G(d)
 There are 64 shells and 174 basis functions
 in ParallelAOLoop for JobNumber:  2 JobType:  2 
 A cutoff of  1.0D-10 yielded   1736 shell pairs
 There are     13558 function pairs
 in ParallelAOLoop for JobNumber: 11 JobType: 11 
 DoParallel is ON (aoloop_n) 
 Smallest overlap matrix eigenvalue = 2.77E-03
 Guess MOs from SCF MO coefficient file
 Reading MOs from coefficient file
 Reading MOs from coefficient file
 A restricted hybrid HF-DFT SCF calculation will be
 performed using Relaxed Constraint Minimization + Pulay DIIS
 Exchange:     0.2000 Hartree-Fock + 0.0800 Slater + 0.7200 B88
 Correlation:  0.1900 VWN1RPA + 0.8100 LYP
 Using SG-1 standard quadrature grid
 SCF converges when DIIS error is below 1.0E-06
 Geometry optimization detected.  Setting ReadMinima to 0
 Setting SaveMinima to 0
 in ParallelAOLoop for JobNumber: 22 JobType: 22 
 Inaccurate integrated density:
   Number of electrons =    78
   Numerical integral  =    77.986517366028
   Relative error      =    -0.0172854282 %
 Inaccurate integrated density:
   Number of electrons =    78
   Numerical integral  =    77.986517366028
   Relative error      =    -0.0172854282 %
 ---------------------------------------
  Cycle       Energy         DIIS Error
 ---------------------------------------
    1    -495.8395951606      1.22E-03
 in ParallelAOLoop for JobNumber: 22 JobType: 22 
    2    -495.8508264815      8.92E-05 Done RCA. Switching to DIIS
 in ParallelAOLoop for JobNumber: 22 JobType: 22 
    3    -495.8508267331      1.23E-04
 in ParallelAOLoop for JobNumber: 22 JobType: 22 
    4    -495.8508707872      3.98E-05
 in ParallelAOLoop for JobNumber: 22 JobType: 22 
    5    -495.8508750244      1.13E-05
 in ParallelAOLoop for JobNumber: 22 JobType: 22 
    6    -495.8508754359      3.19E-06
 in ParallelAOLoop for JobNumber: 22 JobType: 22 
    7    -495.8508754666      1.09E-06
 in ParallelAOLoop for JobNumber: 22 JobType: 22 
    8    -495.8508754719      4.88E-07 Convergence criterion met
 ---------------------------------------
 SCF time:  CPU 54.01 s  wall 54.68 s
 SCF   energy in the final basis set = -495.8508754719
 Total energy in the final basis set = -495.8508754719
 No wavefunction analysis requested
 Calculating analytic gradient of the SCF energy
 in ParallelAOLoop for JobNumber: 111 JobType: 11 
 DoParallel is ON (aoloop_n) 
 in ParallelAOLoop for JobNumber: 122 JobType: 22 
 Gradient of SCF Energy
            1           2           3           4           5           6
    1   0.0004418  -0.0016650   0.0002318  -0.0002619   0.0013053  -0.0004750
    2   0.0007294  -0.0021420   0.0001448   0.0011727  -0.0038594   0.0013413
    3   0.0000898  -0.0003913   0.0002506  -0.0002823   0.0001415   0.0002191
            7           8           9          10          11          12
    1   0.0000101   0.0010451   0.0002172  -0.0004989  -0.0001576  -0.0000304
    2   0.0001557   0.0007942   0.0002162   0.0012277   0.0001489   0.0001270
    3  -0.0000090  -0.0001616   0.0001923  -0.0002487   0.0001699  -0.0000311
           13          14          15          16          17          18
    1   0.0001187  -0.0000670  -0.0000310  -0.0001115  -0.0000029  -0.0000259
    2  -0.0001517   0.0001026   0.0000610  -0.0001563   0.0000135  -0.0001111
    3  -0.0000327  -0.0000274  -0.0001027   0.0000775   0.0000927   0.0000094
           19          20          21          22
    1  -0.0000130   0.0000596   0.0000037  -0.0000931
    2  -0.0000290   0.0001172  -0.0000251   0.0001227
    3  -0.0000679  -0.0000354   0.0002277  -0.0000805
 Max gradient component =       3.859E-03
 RMS gradient           =       7.034E-04
 Gradient time:  CPU 23.83 s  wall 23.86 s
 Geometry Optimization Parameters
   NAtoms,    NIC,     NZ,  NCons,   NDum,   NFix, NCnnct, MaxDiis
       22     142       0       0       0       0       0       0

 Cartesian Hessian Update
 Hessian Updated using BFGS Update


** GEOMETRY OPTIMIZATION IN DELOCALIZED INTERNAL COORDINATES **
   Searching for a Minimum

   Optimization Cycle:   6

                       Coordinates (Angstroms)
     ATOM                X               Y               Z
      1  C         2.6864708721   -1.0826398632   -1.0820639511
      2  C         1.4400265188   -0.2765139316   -0.7520311115
      3  N         1.0912391704   -0.2406874332    0.5618146646
      4  C        -0.0090093655    0.5357544433    1.1653677836
      5  C        -1.4212818393   -0.0305921505    0.8672750218
      6  N        -1.7616299376   -0.0960425573   -0.4446153268
      7  C        -3.0491856568   -0.6002373022   -0.8850592308
      8  O         0.8153833667    0.3114971013   -1.6392853118
      9  C         0.0903523640    2.0388922076    0.8619112392
     10  O        -2.1719022544   -0.3134202081    1.7968672955
     11  H         2.4169513200   -1.8743009343   -1.7877158573
     12  H         3.1713486352   -1.5309779945   -0.2098247974
     13  H         3.4015893606   -0.4264173051   -1.5873017801
     14  H         1.6332476074   -0.8064630539    1.1981390016
     15  H         0.0976360402    0.3911342245    2.2422387288
     16  H        -1.0399910433    0.1204226037   -1.1299836528
     17  H        -2.9547150819   -1.5828277967   -1.3654513043
     18  H        -3.5103834308    0.0922805824   -1.5979319517
     19  H        -3.6911220742   -0.6974620755   -0.0083979257
     20  H        -0.7201677785    2.5664027987    1.3754310278
     21  H         0.0179268904    2.2367229623   -0.2084986862
     22  H         1.0446463165    2.4352356821    1.2252851248
   Point Group: c1    Number of degrees of freedom:    60


   Energy is   -495.850875472

 Hessian Updated using BFGS Update

 57 Hessian modes will be used to form the next step
  Hessian Eigenvalues:
     0.002330    0.004613    0.006542    0.006991    0.008720    0.012401
     0.013063    0.016591    0.020731    0.023009    0.042109    0.052180
     0.052586    0.055904    0.058284    0.066219    0.069080    0.072939
     0.076328    0.076580    0.153261    0.157688    0.159074    0.159599
     0.159861    0.160025    0.160151    0.161383    0.189350    0.208479
     0.217753    0.240825    0.249447    0.249976    0.255058    0.274493
     0.292173    0.297943    0.323378    0.340310    0.341342    0.342746
     0.343405    0.343805    0.344390    0.344828    0.346097    0.347581
     0.348669    0.379926    0.443880    0.455500    0.488870    0.523973
     0.552175    0.894145    0.919406

 Minimum Search - Taking Simple RFO Step
 Searching for Lamda that Minimizes Along All modes
 Value Taken    Lamda =  -0.00018333
 Step Taken.  Stepsize is  0.097253

                             Maximum     Tolerance    Cnvgd?
         Gradient           0.001238      0.000300      NO
         Displacement       0.069733      0.001200      NO
         Energy change     -0.000109      0.000001      NO


 New Cartesian Coordinates Obtained by Inverse Iteration

 Displacement from previous Coordinates is:  0.128584
 ----------------------------------------------------------------
             Standard Nuclear Orientation (Angstroms)
    I     Atom           X                Y                Z
 ----------------------------------------------------------------
    1      C       2.6806506060    -1.0876648535    -1.0851131471
    2      C       1.4391969210    -0.2717971422    -0.7556651270
    3      N       1.0871417984    -0.2362949028     0.5578511175
    4      C      -0.0107662630     0.5421914157     1.1647803330
    5      C      -1.4289735346    -0.0105879642     0.8655527350
    6      N      -1.7628023102    -0.0956603975    -0.4476269421
    7      C      -3.0445454426    -0.6123586026    -0.8899262468
    8      O       0.8050329807     0.2989368093    -1.6476159501
    9      C       0.0962152077     2.0476893151     0.8745316580
   10      O      -2.1732835867    -0.3078435038     1.7959261662
   11      H       2.4067228507    -1.8820496707    -1.7875704527
   12      H       3.1652010653    -1.5354660907    -0.2112399325
   13      H       3.3992215579    -0.4369790478    -1.5945928704
   14      H       1.6349026803    -0.7958167348     1.1964366933
   15      H       0.0972508586     0.3897807097     2.2407401348
   16      H      -1.0435308969     0.1302772377    -1.1332363999
   17      H      -2.9389054480    -1.5962527189    -1.3669506746
   18      H      -3.5086135360     0.0748309090    -1.6071813739
   19      H      -3.6881179057    -0.7112511482    -0.0141729648
   20      H      -0.7125760662     2.5740025322     1.3936135257
   21      H       0.0245534993     2.2562297322    -0.1944859971
   22      H       1.0534549640     2.4358441167     1.2421147156
 ----------------------------------------------------------------
 Nuclear Repulsion Energy =   562.7582385697 hartrees
 There are       39 alpha and       39 beta electrons
 Applying Cartesian multipole field
    Component          Value
    ---------          -----
     (2,0,0)        1.00000E-11
     (0,2,0)        2.00000E-11
     (0,0,2)       -3.00000E-11
 Nucleus-field energy     =     0.0000000029 hartrees
 length of FILE_MO_COEFS: 60900 
 Requested basis set is 6-31G(d)
 There are 64 shells and 174 basis functions
 in ParallelAOLoop for JobNumber:  2 JobType:  2 
 A cutoff of  1.0D-10 yielded   1736 shell pairs
 There are     13602 function pairs
 in ParallelAOLoop for JobNumber: 11 JobType: 11 
 DoParallel is ON (aoloop_n) 
 Smallest overlap matrix eigenvalue = 2.78E-03
 Guess MOs from SCF MO coefficient file
 Reading MOs from coefficient file
 Reading MOs from coefficient file
 A restricted hybrid HF-DFT SCF calculation will be
 performed using Relaxed Constraint Minimization + Pulay DIIS
 Exchange:     0.2000 Hartree-Fock + 0.0800 Slater + 0.7200 B88
 Correlation:  0.1900 VWN1RPA + 0.8100 LYP
 Using SG-1 standard quadrature grid
 SCF converges when DIIS error is below 1.0E-06
 Geometry optimization detected.  Setting ReadMinima to 0
 Setting SaveMinima to 0
 in ParallelAOLoop for JobNumber: 22 JobType: 22 
 Inaccurate integrated density:
   Number of electrons =    78
   Numerical integral  =    77.992117841858
   Relative error      =    -0.0101053310 %
 Inaccurate integrated density:
   Number of electrons =    78
   Numerical integral  =    77.992117841858
   Relative error      =    -0.0101053310 %
 ---------------------------------------
  Cycle       Energy         DIIS Error
 ---------------------------------------
    1    -495.8455451147      5.19E-04 Done RCA. Switching to DIIS
 in ParallelAOLoop for JobNumber: 22 JobType: 22 
    2    -495.8508875162      3.31E-05
 in ParallelAOLoop for JobNumber: 22 JobType: 22 
    3    -495.8508926739      2.76E-05
 in ParallelAOLoop for JobNumber: 22 JobType: 22 
    4    -495.8508946371      1.42E-05
 in ParallelAOLoop for JobNumber: 22 JobType: 22 
    5    -495.8508951036      7.35E-06
 in ParallelAOLoop for JobNumber: 22 JobType: 22 
    6    -495.8508952592      1.55E-06
 in ParallelAOLoop for JobNumber: 22 JobType: 22 
    7    -495.8508952641      4.51E-07 Convergence criterion met
 ---------------------------------------
 SCF time:  CPU 44.91 s  wall 44.76 s
 SCF   energy in the final basis set = -495.8508952641
 Total energy in the final basis set = -495.8508952641
 No wavefunction analysis requested
 Calculating analytic gradient of the SCF energy
 in ParallelAOLoop for JobNumber: 111 JobType: 11 
 DoParallel is ON (aoloop_n) 
 in ParallelAOLoop for JobNumber: 122 JobType: 22 
 Gradient of SCF Energy
            1           2           3           4           5           6
    1  -0.0004555   0.0008437  -0.0003714   0.0000203  -0.0007194  -0.0006243
    2  -0.0000508   0.0011849  -0.0001701  -0.0004341   0.0018899  -0.0005311
    3  -0.0000756   0.0003397  -0.0001562  -0.0003341   0.0007986  -0.0005132
            7           8           9          10          11          12
    1   0.0001327  -0.0001636  -0.0004086   0.0002102   0.0000593   0.0001808
    2  -0.0001332  -0.0007112   0.0001048  -0.0007509  -0.0005552  -0.0002379
    3   0.0000139  -0.0007751   0.0000188   0.0001875  -0.0003465   0.0004056
           13          14          15          16          17          18
    1   0.0003232   0.0003600   0.0003619  -0.0000382   0.0001317   0.0000157
    2   0.0002986  -0.0005020   0.0000784   0.0001396  -0.0004226   0.0003306
    3  -0.0002687   0.0005651   0.0001115  -0.0003739  -0.0001580  -0.0002548
           19          20          21          22
    1  -0.0000430  -0.0003483  -0.0000077   0.0005408
    2   0.0001060   0.0002284  -0.0000129   0.0001507
    3   0.0002214   0.0002821   0.0000789   0.0002329
 Max gradient component =       1.890E-03
 RMS gradient           =       4.546E-04
 Gradient time:  CPU 22.63 s  wall 22.66 s
 Geometry Optimization Parameters
   NAtoms,    NIC,     NZ,  NCons,   NDum,   NFix, NCnnct, MaxDiis
       22     142       0       0       0       0       0       0

 Cartesian Hessian Update
 Hessian Updated using BFGS Update


** GEOMETRY OPTIMIZATION IN DELOCALIZED INTERNAL COORDINATES **
   Searching for a Minimum

   Optimization Cycle:   7

                       Coordinates (Angstroms)
     ATOM                X               Y               Z
      1  C         2.6806506060   -1.0876648535   -1.0851131471
      2  C         1.4391969210   -0.2717971422   -0.7556651270
      3  N         1.0871417984   -0.2362949028    0.5578511175
      4  C        -0.0107662630    0.5421914157    1.1647803330
      5  C        -1.4289735346   -0.0105879642    0.8655527350
      6  N        -1.7628023102   -0.0956603975   -0.4476269421
      7  C        -3.0445454426   -0.6123586026   -0.8899262468
      8  O         0.8050329807    0.2989368093   -1.6476159501
      9  C         0.0962152077    2.0476893151    0.8745316580
     10  O        -2.1732835867   -0.3078435038    1.7959261662
     11  H         2.4067228507   -1.8820496707   -1.7875704527
     12  H         3.1652010653   -1.5354660907   -0.2112399325
     13  H         3.3992215579   -0.4369790478   -1.5945928704
     14  H         1.6349026803   -0.7958167348    1.1964366933
     15  H         0.0972508586    0.3897807097    2.2407401348
     16  H        -1.0435308969    0.1302772377   -1.1332363999
     17  H        -2.9389054480   -1.5962527189   -1.3669506746
     18  H        -3.5086135360    0.0748309090   -1.6071813739
     19  H        -3.6881179057   -0.7112511482   -0.0141729648
     20  H        -0.7125760662    2.5740025322    1.3936135257
     21  H         0.0245534993    2.2562297322   -0.1944859971
     22  H         1.0534549640    2.4358441167    1.2421147156
   Point Group: c1    Number of degrees of freedom:    60


   Energy is   -495.850895264

 Hessian Updated using BFGS Update

 58 Hessian modes will be used to form the next step
  Hessian Eigenvalues:
     0.002304    0.004612    0.006504    0.007260    0.008664    0.012189
     0.012961    0.016568    0.021892    0.038712    0.041939    0.049778
     0.053274    0.055888    0.058334    0.066970    0.069122    0.072940
     0.076323    0.076666    0.156086    0.157875    0.159120    0.159647
     0.159911    0.160019    0.160118    0.160243    0.161766    0.189106
     0.209127    0.219098    0.243158    0.249330    0.249928    0.251532
     0.274525    0.290749    0.300702    0.328654    0.340339    0.340837
     0.342743    0.343410    0.343787    0.344429    0.344777    0.346067
     0.347588    0.348917    0.379969    0.444619    0.457731    0.487515
     0.527176    0.546898    0.894606    0.919731

 Minimum Search - Taking Simple RFO Step
 Searching for Lamda that Minimizes Along All modes
 Value Taken    Lamda =  -0.00010703
 Step Taken.  Stepsize is  0.048369

                             Maximum     Tolerance    Cnvgd?
         Gradient           0.001740      0.000300      NO
         Displacement       0.022431      0.001200      NO
         Energy change     -0.000020      0.000001      NO


 New Cartesian Coordinates Obtained by Inverse Iteration

 Displacement from previous Coordinates is:  0.118509
 ----------------------------------------------------------------
             Standard Nuclear Orientation (Angstroms)
    I     Atom           X                Y                Z
 ----------------------------------------------------------------
    1      C       2.6762839767    -1.0829669433    -1.0864780304
    2      C       1.4388230365    -0.2659031880    -0.7484979036
    3      N       1.0874064763    -0.2396143542     0.5644633207
    4      C      -0.0101509809     0.5383404211     1.1701726123
    5      C      -1.4258160734    -0.0170102677     0.8690024996
    6      N      -1.7546316042    -0.1044654179    -0.4442404548
    7      C      -3.0403459054    -0.6101352902    -0.8881550566
    8      O       0.8068183753     0.3193021139    -1.6324234990
    9      C       0.0950567285     2.0403018807     0.8646833415
   10      O      -2.1782142719    -0.2983499801     1.7977289150
   11      H       2.3986661919    -1.8652068982    -1.7996876638
   12      H       3.1572353737    -1.5446518852    -0.2188473785
   13      H       3.3977808847    -0.4291547769    -1.5858923596
   14      H       1.6336931310    -0.8024884292     1.1998395417
   15      H       0.0946877368     0.3920103728     2.2470995757
   16      H      -1.0319458270     0.1171386445    -1.1272178203
   17      H      -2.9431477960    -1.5932772878    -1.3669148429
   18      H      -3.4994160410     0.0811120298    -1.6038552123
   19      H      -3.6853697509    -0.7062016641    -0.0135316375
   20      H      -0.7158543986     2.5702095256     1.3750827892
   21      H       0.0262810899     2.2367538959    -0.2067809337
   22      H       1.0495896480     2.4340174987     1.2306191975
 ----------------------------------------------------------------
 Nuclear Repulsion Energy =   563.4749575423 hartrees
 There are       39 alpha and       39 beta electrons
 Applying Cartesian multipole field
    Component          Value
    ---------          -----
     (2,0,0)        1.00000E-11
     (0,2,0)        2.00000E-11
     (0,0,2)       -3.00000E-11
 Nucleus-field energy     =     0.0000000029 hartrees
 length of FILE_MO_COEFS: 60900 
 Requested basis set is 6-31G(d)
 There are 64 shells and 174 basis functions
 in ParallelAOLoop for JobNumber:  2 JobType:  2 
 A cutoff of  1.0D-10 yielded   1739 shell pairs
 There are     13611 function pairs
 in ParallelAOLoop for JobNumber: 11 JobType: 11 
 DoParallel is ON (aoloop_n) 
 Smallest overlap matrix eigenvalue = 2.75E-03
 Guess MOs from SCF MO coefficient file
 Reading MOs from coefficient file
 Reading MOs from coefficient file
 A restricted hybrid HF-DFT SCF calculation will be
 performed using Relaxed Constraint Minimization + Pulay DIIS
 Exchange:     0.2000 Hartree-Fock + 0.0800 Slater + 0.7200 B88
 Correlation:  0.1900 VWN1RPA + 0.8100 LYP
 Using SG-1 standard quadrature grid
 SCF converges when DIIS error is below 1.0E-06
 Geometry optimization detected.  Setting ReadMinima to 0
 Setting SaveMinima to 0
 in ParallelAOLoop for JobNumber: 22 JobType: 22 
 ---------------------------------------
  Cycle       Energy         DIIS Error
 ---------------------------------------
    1    -495.8558874087      5.02E-04 Done RCA. Switching to DIIS
 in ParallelAOLoop for JobNumber: 22 JobType: 22 
    2    -495.8509340848      3.03E-05
 in ParallelAOLoop for JobNumber: 22 JobType: 22 
    3    -495.8509364158      3.50E-05
 in ParallelAOLoop for JobNumber: 22 JobType: 22 
    4    -495.8509395710      1.60E-05
 in ParallelAOLoop for JobNumber: 22 JobType: 22 
    5    -495.8509402941      3.90E-06
 in ParallelAOLoop for JobNumber: 22 JobType: 22 
    6    -495.8509403309      2.05E-06
 in ParallelAOLoop for JobNumber: 22 JobType: 22 
    7    -495.8509403457      3.69E-07 Convergence criterion met
 ---------------------------------------
 SCF time:  CPU 44.29 s  wall 44.32 s
 SCF   energy in the final basis set = -495.8509403457
 Total energy in the final basis set = -495.8509403457
 No wavefunction analysis requested
 Calculating analytic gradient of the SCF energy
 in ParallelAOLoop for JobNumber: 111 JobType: 11 
 DoParallel is ON (aoloop_n) 
 in ParallelAOLoop for JobNumber: 122 JobType: 22 
 Gradient of SCF Energy
            1           2           3           4           5           6
    1  -0.0000815   0.0003226  -0.0003088   0.0000442   0.0000421   0.0000516
    2  -0.0002623   0.0006964  -0.0000143  -0.0001154  -0.0001329   0.0004066
    3  -0.0000296  -0.0000915  -0.0001858   0.0002765   0.0000680  -0.0000156
            7           8           9          10          11          12
    1   0.0000313  -0.0002523   0.0000940   0.0000518   0.0000557   0.0000342
    2  -0.0000733  -0.0001472  -0.0002624   0.0000432  -0.0000606  -0.0000284
    3  -0.0000087   0.0003900  -0.0000721  -0.0000796   0.0000100  -0.0000113
           13          14          15          16          17          18
    1  -0.0000943  -0.0000119  -0.0000453   0.0000906  -0.0000392   0.0000733
    2   0.0000082   0.0000813  -0.0000289  -0.0000860  -0.0000314  -0.0000195
    3   0.0000288  -0.0000056   0.0000385  -0.0000610   0.0000385  -0.0000087
           19          20          21          22
    1  -0.0000329  -0.0000089  -0.0000117  -0.0000047
    2   0.0000194  -0.0000619   0.0000919  -0.0000226
    3  -0.0000213  -0.0000424  -0.0001961  -0.0000209
 Max gradient component =       6.964E-04
 RMS gradient           =       1.528E-04
 Gradient time:  CPU 22.39 s  wall 22.40 s
 Geometry Optimization Parameters
   NAtoms,    NIC,     NZ,  NCons,   NDum,   NFix, NCnnct, MaxDiis
       22     142       0       0       0       0       0       0

 Cartesian Hessian Update
 Hessian Updated using BFGS Update


** GEOMETRY OPTIMIZATION IN DELOCALIZED INTERNAL COORDINATES **
   Searching for a Minimum

   Optimization Cycle:   8

                       Coordinates (Angstroms)
     ATOM                X               Y               Z
      1  C         2.6762839767   -1.0829669433   -1.0864780304
      2  C         1.4388230365   -0.2659031880   -0.7484979036
      3  N         1.0874064763   -0.2396143542    0.5644633207
      4  C        -0.0101509809    0.5383404211    1.1701726123
      5  C        -1.4258160734   -0.0170102677    0.8690024996
      6  N        -1.7546316042   -0.1044654179   -0.4442404548
      7  C        -3.0403459054   -0.6101352902   -0.8881550566
      8  O         0.8068183753    0.3193021139   -1.6324234990
      9  C         0.0950567285    2.0403018807    0.8646833415
     10  O        -2.1782142719   -0.2983499801    1.7977289150
     11  H         2.3986661919   -1.8652068982   -1.7996876638
     12  H         3.1572353737   -1.5446518852   -0.2188473785
     13  H         3.3977808847   -0.4291547769   -1.5858923596
     14  H         1.6336931310   -0.8024884292    1.1998395417
     15  H         0.0946877368    0.3920103728    2.2470995757
     16  H        -1.0319458270    0.1171386445   -1.1272178203
     17  H        -2.9431477960   -1.5932772878   -1.3669148429
     18  H        -3.4994160410    0.0811120298   -1.6038552123
     19  H        -3.6853697509   -0.7062016641   -0.0135316375
     20  H        -0.7158543986    2.5702095256    1.3750827892
     21  H         0.0262810899    2.2367538959   -0.2067809337
     22  H         1.0495896480    2.4340174987    1.2306191975
   Point Group: c1    Number of degrees of freedom:    60


   Energy is   -495.850940346

 Hessian Updated using BFGS Update

 59 Hessian modes will be used to form the next step
  Hessian Eigenvalues:
     0.002305    0.004613    0.006461    0.007423    0.008512    0.012216
     0.013029    0.016782    0.022220    0.036195    0.042224    0.051746
     0.053000    0.055890    0.058320    0.066541    0.069056    0.072939
     0.076332    0.076625    0.154246    0.157713    0.159108    0.159587
     0.159909    0.159986    0.160020    0.160131    0.160564    0.161230
     0.189100    0.213666    0.222253    0.241979    0.249403    0.249954
     0.257696    0.274490    0.292152    0.299422    0.327330    0.340351
     0.340916    0.342742    0.343417    0.343792    0.344396    0.344822
     0.346081    0.347595    0.351307    0.379987    0.444121    0.458935
     0.511861    0.530229    0.576057    0.896810    0.920463

 Minimum Search - Taking Simple RFO Step
 Searching for Lamda that Minimizes Along All modes
 Value Taken    Lamda =  -0.00001576
 Step Taken.  Stepsize is  0.027526

                             Maximum     Tolerance    Cnvgd?
         Gradient           0.000950      0.000300      NO
         Displacement       0.016149      0.001200      NO
         Energy change     -0.000045      0.000001      NO


 New Cartesian Coordinates Obtained by Inverse Iteration

 Displacement from previous Coordinates is:  0.046439
 ----------------------------------------------------------------
             Standard Nuclear Orientation (Angstroms)
    I     Atom           X                Y                Z
 ----------------------------------------------------------------
    1      C       2.6802608829    -1.0825905339    -1.0843231633
    2      C       1.4374094317    -0.2725312976    -0.7504589981
    3      N       1.0872161477    -0.2411480664     0.5627816773
    4      C      -0.0101945355     0.5383116642     1.1673987452
    5      C      -1.4263710313    -0.0167748096     0.8676407824
    6      N      -1.7569222157    -0.1049575114    -0.4449928543
    7      C      -3.0440433047    -0.6089139156    -0.8867931153
    8      O       0.8081579728     0.3129114325    -1.6363060163
    9      C       0.0955820195     2.0408568197     0.8640402491
   10      O      -2.1769485498    -0.3000899084     1.7972800731
   11      H       2.4086182592    -1.8654864624    -1.7988652408
   12      H       3.1600598405    -1.5423427665    -0.2152005934
   13      H       3.4004913699    -0.4252388395    -1.5808039407
   14      H       1.6335570160    -0.8026711200     1.1991566542
   15      H       0.0946257255     0.3918036476     2.2442259811
   16      H      -1.0363232620     0.1197487565    -1.1289468876
   17      H      -2.9479934536    -1.5892151781    -1.3712883717
   18      H      -3.5068311298     0.0856813366    -1.5967834791
   19      H      -3.6853657507    -0.7102650176    -0.0101184013
   20      H      -0.7145751755     2.5708398603     1.3754202067
   21      H       0.0266407342     2.2382970249    -0.2069369926
   22      H       1.0503790086     2.4335348848     1.2300426855
 ----------------------------------------------------------------
 Nuclear Repulsion Energy =   563.3286482266 hartrees
 There are       39 alpha and       39 beta electrons
 Applying Cartesian multipole field
    Component          Value
    ---------          -----
     (2,0,0)        1.00000E-11
     (0,2,0)        2.00000E-11
     (0,0,2)       -3.00000E-11
 Nucleus-field energy     =     0.0000000029 hartrees
 length of FILE_MO_COEFS: 60900 
 Requested basis set is 6-31G(d)
 There are 64 shells and 174 basis functions
 in ParallelAOLoop for JobNumber:  2 JobType:  2 
 A cutoff of  1.0D-10 yielded   1737 shell pairs
 There are     13606 function pairs
 in ParallelAOLoop for JobNumber: 11 JobType: 11 
 DoParallel is ON (aoloop_n) 
 Smallest overlap matrix eigenvalue = 2.76E-03
 Guess MOs from SCF MO coefficient file
 Reading MOs from coefficient file
 Reading MOs from coefficient file
 A restricted hybrid HF-DFT SCF calculation will be
 performed using Relaxed Constraint Minimization + Pulay DIIS
 Exchange:     0.2000 Hartree-Fock + 0.0800 Slater + 0.7200 B88
 Correlation:  0.1900 VWN1RPA + 0.8100 LYP
 Using SG-1 standard quadrature grid
 SCF converges when DIIS error is below 1.0E-06
 Geometry optimization detected.  Setting ReadMinima to 0
 Setting SaveMinima to 0
 in ParallelAOLoop for JobNumber: 22 JobType: 22 
 ---------------------------------------
  Cycle       Energy         DIIS Error
 ---------------------------------------
    1    -495.8506659245      1.29E-04 Done RCA. Switching to DIIS
 in ParallelAOLoop for JobNumber: 22 JobType: 22 
    2    -495.8509441359      1.00E-05
 in ParallelAOLoop for JobNumber: 22 JobType: 22 
    3    -495.8509443219      1.14E-05
 in ParallelAOLoop for JobNumber: 22 JobType: 22 
    4    -495.8509446651      4.80E-06
 in ParallelAOLoop for JobNumber: 22 JobType: 22 
    5    -495.8509447246      1.89E-06
 in ParallelAOLoop for JobNumber: 22 JobType: 22 
    6    -495.8509447330      5.38E-07 Convergence criterion met
 ---------------------------------------
 SCF time:  CPU 38.46 s  wall 38.40 s
 SCF   energy in the final basis set = -495.8509447330
 Total energy in the final basis set = -495.8509447330
 No wavefunction analysis requested
 Calculating analytic gradient of the SCF energy
 in ParallelAOLoop for JobNumber: 111 JobType: 11 
 DoParallel is ON (aoloop_n) 
 in ParallelAOLoop for JobNumber: 122 JobType: 22 
 Gradient of SCF Energy
            1           2           3           4           5           6
    1   0.0002177  -0.0005257   0.0001279   0.0000881  -0.0000735   0.0000901
    2   0.0002323  -0.0008040  -0.0000200  -0.0000383   0.0001262   0.0001835
    3   0.0000488  -0.0000991   0.0000121  -0.0000181  -0.0000032   0.0000374
            7           8           9          10          11          12
[...]
  N      1.11354900     -0.19823800      0.58761800
  C     -0.00298000      0.56883900      1.17333300
  C     -1.39082500     -0.04839100      0.86304600
  N     -1.76843900     -0.01235800     -0.44119500
  C     -3.01569800     -0.60246400     -0.89301600
  O      0.82252900      0.34444500     -1.61350100
  C      0.08115500      2.06599200      0.84755600
  O     -2.08250200     -0.49232900      1.77525500
  H      2.32377100     -1.91487600     -1.75460200
  H      3.13164700     -1.56863500     -0.20441700
  H      3.36980200     -0.50540200     -1.61108800
  H      1.59399600     -0.82962800      1.21033700
  H      0.09465600      0.43960900      2.25302000
  H     -1.05927300      0.24857500     -1.12287900
  H     -2.84972600     -1.54682100     -1.42653800
  H     -3.54507000      0.08469000     -1.56094800
  H     -3.63181700     -0.80093700     -0.01550300
  H     -0.73490600      2.59396600      1.34994200
  H      0.01338700      2.24845300     -0.22477800
  H      1.02949900      2.47395100      1.21008000
  22
Step 2
  C      2.64212558     -1.10875364     -1.08568221
  C      1.43360302     -0.25221392     -0.74104139
  N      1.09876846     -0.20772266      0.57740012
  C     -0.00723441      0.56648796      1.17460205
  C     -1.40656360     -0.02738286      0.86716757
  N     -1.76002317     -0.04505979     -0.44479704
  C     -3.01514076     -0.61916250     -0.89488121
  O      0.82528289      0.36494876     -1.61949390
  C      0.09243148      2.06673108      0.86469168
  O     -2.12529732     -0.40851809      1.78679479
  H      2.33110854     -1.89466062     -1.78122434
  H      3.12357242     -1.56879683     -0.21755040
  H      3.37319577     -0.48360325     -1.60709814
  H      1.58693266     -0.83590316      1.19931868
  H      0.09559149      0.42664865      2.25273289
  H     -1.03464437      0.17327898     -1.12541241
  H     -2.86467239     -1.59139719     -1.38274202
  H     -3.51084070      0.05291478     -1.60403381
  H     -3.65344940     -0.75988440     -0.02148842
  H     -0.71678361      2.59787152      1.37684740
  H      0.02165716      2.26310654     -0.20579935
  H      1.04781027      2.46083066      1.22785847
  22
Step 3
  C      2.68510812     -1.09560274     -1.07988961
  C      1.44262333     -0.27650244     -0.75564864
  N      1.09413293     -0.22976478      0.55985362
  C     -0.00975439      0.54480707      1.16366205
  C     -1.42113455     -0.02850823      0.86754928
  N     -1.77779864     -0.06214214     -0.44419844
  C     -3.04899606     -0.60297966     -0.88914982
  O      0.81651181      0.30006776     -1.64894772
  C      0.08986039      2.04887934      0.86631959
  O     -2.15268339     -0.35590362      1.79751141
  H      2.41152936     -1.90351466     -1.76927846
  H      3.17580050     -1.52913306     -0.20037554
  H      3.40110278     -0.45026352     -1.60252207
  H      1.62498611     -0.80845009      1.19841624
  H      0.10362698      0.39972397      2.24053481
  H     -1.06154588      0.16859509     -1.13265513
  H     -2.92148944     -1.57899073     -1.37985708
  H     -3.52896170      0.08465487     -1.59664800
  H     -3.68760700     -0.72783366     -0.01236309
  H     -0.71852066      2.57475380      1.38926632
  H      0.01095281      2.25711463     -0.20315003
  H      1.04968661      2.44075281      1.22773931
  22
Step 4
  C      2.65320097     -1.09436803     -1.09363438
  C      1.41668820     -0.27591513     -0.74961488
  N      1.08954553     -0.22576185      0.56979741
  C     -0.00892345      0.54870948      1.18029735
  C     -1.42117628     -0.01105638      0.87188457
  N     -1.74821101     -0.07506947     -0.44506887
  C     -3.01530357     -0.61365679     -0.90429839
  O      0.75807640      0.27806808     -1.63365337
  C      0.09512174      2.05202598      0.88245399
  O     -2.16873464     -0.32416098      1.79380690
  H      2.36635292     -1.90682382     -1.77048734
  H      3.16372148     -1.51991749     -0.22273190
  H      3.35472359     -0.45128138     -1.63612311
  H      1.64028242     -0.78735114      1.20479515
  H      0.09896704      0.39880220      2.25678370
  H     -1.02038693      0.15014273     -1.12257573
  H     -2.88756188     -1.59725110     -1.37756391
  H     -3.47862204      0.06524567     -1.63000050
  H     -3.67047954     -0.72072522     -0.03791626
  H     -0.71469975      2.57946184      1.39964708
  H      0.02231156      2.25788114     -0.18769467
  H      1.05253725      2.44276164      1.24806614
  22
Step 5
  C      2.66617915     -1.08611996     -1.08398804
  C      1.44896245     -0.24447520     -0.73990077
  N      1.08571985     -0.23810274      0.56879206
  C     -0.01069453      0.54250347      1.17176923
  C     -1.42460029     -0.01340490      0.87058101
  N     -1.75809469     -0.08458927     -0.44115465
  C     -3.03450997     -0.61606734     -0.88304452
  O      0.83890706      0.37594473     -1.61465839
  C      0.09747579      2.03992581      0.85150695
  O     -2.16342238     -0.33539795      1.79647416
  H      2.37202098     -1.84877540     -1.80918223
  H      3.13104261     -1.57150961     -0.22250394
  H      3.40369650     -0.44281426     -1.56965921
  H      1.60919037     -0.82781987      1.19603760
  H      0.08957816      0.40157794      2.24939993
  H     -1.03590288      0.13924486     -1.12291761
  H     -2.92244961     -1.59822794     -1.35784835
  H     -3.50670047      0.06255213     -1.60027698
  H     -3.67863258     -0.72130637     -0.00956048
  H     -0.71209069      2.57700399      1.35351754
  H      0.03121490      2.22460897     -0.22156736
  H      1.05054026      2.43500891      1.21435304
  22
Step 6
  C      2.68647087     -1.08263986     -1.08206395
  C      1.44002652     -0.27651393     -0.75203111
  N      1.09123917     -0.24068743      0.56181466
  C     -0.00900937      0.53575444      1.16536778
  C     -1.42128184     -0.03059215      0.86727502
  N     -1.76162994     -0.09604256     -0.44461533
  C     -3.04918566     -0.60023730     -0.88505923
  O      0.81538337      0.31149710     -1.63928531
  C      0.09035236      2.03889221      0.86191124
  O     -2.17190225     -0.31342021      1.79686730
  H      2.41695132     -1.87430093     -1.78771586
  H      3.17134864     -1.53097799     -0.20982480
  H      3.40158936     -0.42641731     -1.58730178
  H      1.63324761     -0.80646305      1.19813900
  H      0.09763604      0.39113422      2.24223873
  H     -1.03999104      0.12042260     -1.12998365
  H     -2.95471508     -1.58282780     -1.36545130
  H     -3.51038343      0.09228058     -1.59793195
  H     -3.69112207     -0.69746208     -0.00839793
  H     -0.72016778      2.56640280      1.37543103
  H      0.01792689      2.23672296     -0.20849869
  H      1.04464632      2.43523568      1.22528512
  22
Step 7
  C      2.68065061     -1.08766485     -1.08511315
  C      1.43919692     -0.27179714     -0.75566513
  N      1.08714180     -0.23629490      0.55785112
  C     -0.01076626      0.54219142      1.16478033
  C     -1.42897353     -0.01058796      0.86555273
  N     -1.76280231     -0.09566040     -0.44762694
  C     -3.04454544     -0.61235860     -0.88992625
  O      0.80503298      0.29893681     -1.64761595
  C      0.09621521      2.04768932      0.87453166
  O     -2.17328359     -0.30784350      1.79592617
  H      2.40672285     -1.88204967     -1.78757045
  H      3.16520107     -1.53546609     -0.21123993
  H      3.39922156     -0.43697905     -1.59459287
  H      1.63490268     -0.79581673      1.19643669
  H      0.09725086      0.38978071      2.24074013
  H     -1.04353090      0.13027724     -1.13323640
  H     -2.93890545     -1.59625272     -1.36695067
  H     -3.50861354      0.07483091     -1.60718137
  H     -3.68811791     -0.71125115     -0.01417296
  H     -0.71257607      2.57400253      1.39361353
  H      0.02455350      2.25622973     -0.19448600
  H      1.05345496      2.43584412      1.24211472
  22
Step 8
  C      2.67628398     -1.08296694     -1.08647803
  C      1.43882304     -0.26590319     -0.74849790
  N      1.08740648     -0.23961435      0.56446332
  C     -0.01015098      0.53834042      1.17017261
  C     -1.42581607     -0.01701027      0.86900250
  N     -1.75463160     -0.10446542     -0.44424045
  C     -3.04034591     -0.61013529     -0.88815506
  O      0.80681838      0.31930211     -1.63242350
  C      0.09505673      2.04030188      0.86468334
  O     -2.17821427     -0.29834998      1.79772892
  H      2.39866619     -1.86520690     -1.79968766
  H      3.15723537     -1.54465189     -0.21884738
  H      3.39778088     -0.42915478     -1.58589236
  H      1.63369313     -0.80248843      1.19983954
  H      0.09468774      0.39201037      2.24709958
  H     -1.03194583      0.11713864     -1.12721782
  H     -2.94314780     -1.59327729     -1.36691484
  H     -3.49941604      0.08111203     -1.60385521
  H     -3.68536975     -0.70620166     -0.01353164
  H     -0.71585440      2.57020953      1.37508279
  H      0.02628109      2.23675390     -0.20678093
  H      1.04958965      2.43401750      1.23061920
  22
Step 9
  C      2.68026088     -1.08259053     -1.08432316
  C      1.43740943     -0.27253130     -0.75045900
  N      1.08721615     -0.24114807      0.56278168
  C     -0.01019454      0.53831166      1.16739875
  C     -1.42637103     -0.01677481      0.86764078
  N     -1.75692222     -0.10495751     -0.44499285
  C     -3.04404330     -0.60891392     -0.88679312
  O      0.80815797      0.31291143     -1.63630602
  C      0.09558202      2.04085682      0.86404025
  O     -2.17694855     -0.30008991      1.79728007
  H      2.40861826     -1.86548646     -1.79886524
  H      3.16005984     -1.54234277     -0.21520059
  H      3.40049137     -0.42523884     -1.58080394
  H      1.63355702     -0.80267112      1.19915665
  H      0.09462573      0.39180365      2.24422598
  H     -1.03632326      0.11974876     -1.12894689
  H     -2.94799345     -1.58921518     -1.37128837
  H     -3.50683113      0.08568134     -1.59678348
  H     -3.68536575     -0.71026502     -0.01011840
  H     -0.71457518      2.57083986      1.37542021
  H      0.02664073      2.23829702     -0.20693699
  H      1.05037901      2.43353488      1.23004269
  22
Step 10
  C      2.68159108     -1.08268995     -1.08469580
  C      1.44035227     -0.26971109     -0.75170779
  N      1.08788284     -0.23987403      0.56111088
  C     -0.01022057      0.53871872      1.16595347
  C     -1.42676554     -0.01651887      0.86695569
  N     -1.75608870     -0.11159052     -0.44555305
  C     -3.04556709     -0.61031643     -0.88623480
  O      0.81051388      0.31286194     -1.63911412
  C      0.09507519      2.04217029      0.86590758
  O     -2.18011261     -0.29011093      1.79733507
  H      2.40972887     -1.86284060     -1.80232764
  H      3.15767887     -1.54636888     -0.21549406
  H      3.40523948     -0.42599176     -1.57734899
  H      1.63362742     -0.80203207      1.19765381
  H      0.09504985      0.39084977      2.24255987
  H     -1.03512650      0.11016985     -1.13010740
  H     -2.95300438     -1.59024959     -1.37225783
  H     -3.50733802      0.08677495     -1.59465436
  H     -3.68574196     -0.71067950     -0.00856147
  H     -0.71516021      2.57084339      1.37875020
  H      0.02587729      2.24192981     -0.20459290
  H      1.04993852      2.43441552      1.23259265
  22
Step 11
  C      2.68093115     -1.08234053     -1.08491705
  C      1.43963822     -0.26956410     -0.75092879
  N      1.08731839     -0.24016061      0.56192166
  C     -0.01036647      0.53877241      1.16680372
  C     -1.42747709     -0.01481815      0.86776424
  N     -1.75448898     -0.11557935     -0.44491408
  C     -3.04480925     -0.61140928     -0.88622198
  O      0.80857015      0.31263880     -1.63769605
  C      0.09557882      2.04161748      0.86447923
  O     -2.18215152     -0.28384436      1.79844614
  H      2.41021807     -1.85855469     -1.80735190
  H      3.15448514     -1.55098825     -0.21687365
  H      3.40670005     -0.42389162     -1.57234484
  H      1.63372597     -0.80163459      1.19864255
  H      0.09497848      0.39185883      2.24360753
  H     -1.03384806      0.10803069     -1.12929629
  H     -2.95264907     -1.58824865     -1.37854914
  H     -3.50819730      0.09001371     -1.58949221
  H     -3.68316351     -0.71710374     -0.00780810
  H     -0.71480445      2.57100058      1.37644795
  H      0.02667920      2.23993254     -0.20649408
  H      1.05056204      2.43403288      1.23094416
  22
Step 12
  C      2.68069800     -1.08199376     -1.08431706
  C      1.43861313     -0.27042233     -0.75050472
  N      1.08654917     -0.24020806      0.56231944
  C     -0.01048180      0.53986316      1.16666427
  C     -1.42877890     -0.01079352      0.86862533
  N     -1.75078239     -0.12715262     -0.44380549
  C     -3.04441484     -0.61431469     -0.88488675
  O      0.80723643      0.31178943     -1.63706157
  C      0.09651055      2.04195277      0.86122419
  O     -2.18718355     -0.26657335      1.80007728
  H      2.41474234     -1.84621991     -1.82098706
  H      3.14439028     -1.56483120     -0.21876335
  H      3.41350438     -0.41877077     -1.55461221
  H      1.63192355     -0.80258583      1.19908030
  H      0.09474760      0.39477343      2.24374633
  H     -1.03093163      0.09875297     -1.12820763
  H     -2.95442422     -1.58076237     -1.39727306
  H     -3.51495699      0.10001888     -1.57047517
  H     -3.67548173     -0.73766708     -0.00352862
  H     -0.71354946      2.57263585      1.37223049
  H      0.02775452      2.23790904     -0.21026236
  H      1.05174556      2.43435996      1.22688644
  22
Step 13
  C      2.68192006     -1.08233399     -1.08244478
  C      1.43804957     -0.27268896     -0.75084332
  N      1.08601386     -0.23978685      0.56193622
  C     -0.01047952      0.54183157      1.16505099
  C     -1.43031121     -0.00586217      0.86916646
  N     -1.74762432     -0.14083408     -0.44253243
  C     -3.04542662     -0.61773037     -0.88233392
  O      0.80740096      0.30896080     -1.63828076
  C      0.09744834      2.04331106      0.85659281
  O     -2.19290823     -0.24459209      1.80176454
  H      2.42413151     -1.83003194     -1.83849095
  H      3.13070210     -1.58422138     -0.21990326
  H      3.42484684     -0.41298642     -1.52786386
  H      1.62858352     -0.80445330      1.19905943
  H      0.09513055      0.39916889      2.24243335
  H     -1.02912054      0.08652003     -1.12779902
  H     -2.95692420     -1.56670650     -1.42610448
  H     -3.52921520      0.11512748     -1.53899833
  H     -3.66424632     -0.77089139      0.00300579
  H     -0.71179079      2.57536926      1.36737924
  H      0.02795794      2.23696467     -0.21526879
  H      1.05329171      2.43562567      1.22064407
  22
Step 14
  C      2.68261159     -1.08356697     -1.08069777
  C      1.43798000     -0.27436125     -0.75126800
  N      1.08617608     -0.23888369      0.56155235
  C     -0.01023006      0.54357664      1.16364486
  C     -1.43053976     -0.00355765      0.86918304
  N     -1.74681667     -0.14504539     -0.44208131
  C     -3.04611027     -0.61907616     -0.88063947
  O      0.80812033      0.30648604     -1.63975056
  C      0.09759200      2.04485440      0.85365279
  O     -2.19442535     -0.23639660      1.80215195
  H      2.42946055     -1.82233494     -1.84681583
  H      3.12237139     -1.59554966     -0.21949427
  H      3.43153514     -0.41166566     -1.51212421
  H      1.62643788     -0.80541105      1.19892721
  H      0.09561168      0.40250194      2.24118966
  H     -1.02871058      0.08139592     -1.12801053
  H     -2.95622205     -1.55534775     -1.44541186
  H     -3.54096138      0.12435965     -1.51709448
  H     -3.65630914     -0.79444103      0.00655291
  H     -0.71111856      2.57752074      1.36456651
  H      0.02723242      2.23727539     -0.21829554
  H      1.05374476      2.43742708      1.21643155
  22
Step 15
  C      2.68360694     -1.08515772     -1.07861460
  C      1.43808698     -0.27634891     -0.75153357
  N      1.08621185     -0.23840472      0.56127828
  C     -0.01004870      0.54502283      1.16226404
  C     -1.43058607     -0.00226736      0.86911011
  N     -1.74781233     -0.14411749     -0.44198833
  C     -3.04716083     -0.61922111     -0.87920615
  O      0.80882626      0.30318923     -1.64123020
  C      0.09763172      2.04608809      0.85061390
  O     -2.19421555     -0.23422558      1.80242524
  H      2.43439068     -1.81791274     -1.85165048
  H      3.11655507     -1.60395309     -0.21801469
  H      3.43692408     -0.41154432     -1.49975322
  H      1.62538112     -0.80519366      1.19935431
  H      0.09615124      0.40548925      2.23996009
  H     -1.02968863      0.08010220     -1.12863294
  H     -2.95380032     -1.54308424     -1.46326289
  H     -3.55421952      0.13233904     -1.49646892
  H     -3.64863321     -0.81683488      0.00926648
  H     -0.71070959      2.57940874      1.36145476
  H      0.02648981      2.23731011     -0.22144945
  H      1.05404898      2.43907632      1.21224724
  22
Step 16
  C      2.68395371     -1.08625170     -1.07727905
  C      1.43792747     -0.27771927     -0.75140694
  N      1.08583978     -0.23860742      0.56133769
  C     -0.01008739      0.54577154      1.16167940
  C     -1.43063272     -0.00179163      0.86904297
  N     -1.74915584     -0.14079076     -0.44207282
  C     -3.04765836     -0.61877536     -0.87866448
  O      0.80856942      0.30049975     -1.64186405
  C      0.09784005      2.04659118      0.84876290
  O     -2.19332394     -0.23607859      1.80251505
  H      2.43642131     -1.81697734     -1.85272642
  H      3.11433459     -1.60734960     -0.21676521
  H      3.43882162     -0.41197839     -1.49462370
  H      1.62593350     -0.80362455      1.20019883
  H      0.09612858      0.40709275      2.23947520
  H     -1.03054596      0.08144071     -1.12886429
  H     -2.95091578     -1.53523643     -1.47360429
  H     -3.56277723      0.13634483     -1.48492684
  H     -3.64381702     -0.83004810      0.01025920
  H     -0.71046239      2.58054081      1.35903074
  H      0.02675735      2.23690415     -0.22345222
  H      1.05427925      2.43980341      1.21011733
  22
Step 17
  C      2.68428027     -1.08649423     -1.07658991
  C      1.43764723     -0.27868144     -0.75112617
  N      1.08519533     -0.23939519      0.56148774
  C     -0.01031015      0.54587042      1.16150592
  C     -1.43096499     -0.00151903      0.86895844
  N     -1.75019004     -0.13876441     -0.44216906
  C     -3.04815983     -0.61836881     -0.87853737
  O      0.80778926      0.29847342     -1.64193616
  C      0.09832240      2.04645209      0.84778740
  O     -2.19309694     -0.23708699      1.80258638
  H      2.43759533     -1.81684693     -1.85267184
  H      3.11428148     -1.60798951     -0.21610339
  H      3.43919152     -0.41166148     -1.49301489
  H      1.62727464     -0.80165380      1.20111399
  H      0.09578035      0.40749321      2.23935300
  H     -1.03119692      0.08231800     -1.12897404
  H     -2.94961330     -1.53114107     -1.47879225
  H     -3.56725345      0.13836900     -1.47944033
  H     -3.64161887     -0.83639523      0.01057400
  H     -0.71006138      2.58100721      1.35732517
  H      0.02781624      2.23620201     -0.22458996
  H      1.05472179      2.43957276      1.20942233

======= END OF MOLDEN-FORMATTED INPUT FILE =======


        *************************************************************
        *                                                           *
        *  Thank you very much for using Q-Chem.  Have a nice day.  *
        *                                                           *
        *************************************************************


0 sent ACK to 0 
now end server 0 ...
