  11  
Step 5
  H      0.41797324      0.94736684     -0.39562105
  C      0.23463898      1.11282329      0.66131673
  C      0.64075280      0.23925801      1.58339559
  H     -0.28695375      2.01445005      0.96002081
  H      0.46045309      0.40790985      2.64613421
  O      1.30089798     -0.91413688      1.27688069
  H      1.50257557     -1.39412410      2.10286864
  O      1.19203118     -2.73369610      3.40309101
  C      0.37322499     -3.45250540      2.86892341
  H     -0.00656927     -4.36236697      3.36949173
  H     -0.02689882     -3.23019659      1.86359922
  11
Step 20
  H     -0.19936743      0.59407144      0.74388584
  C     -0.40617656     -0.33905946      1.27660171
  C      0.86105725     -0.80690813      1.99099738
  H     -1.21318809     -0.17115368      1.99621611
  H      1.15156591     -0.07305690      2.75681870
  O      1.87101317     -0.96523074      0.99795803
  H      2.71471571     -1.12994105      1.44729950
  O      0.30236175     -2.25148677      3.85738347
  C      0.59626418     -2.13750850      2.68899351
  H     -0.73244687     -1.08584907      0.54426337
  H      0.68810598     -3.02017613      2.01425240
